 Entering Gaussian System, Link 0=gdv
 Initial command:
 /home/andy/gdvj28p/gdv/l1.exe "/home/andy/tdci-test/TDCI-CAP/test/Test4_SOC_linear_HF_HCl/g_HCl/Gau-1010000.inp" -scrdir="/home/andy/tdci-test/TDCI-CAP/test/Test4_SOC_linear_HF_HCl/g_HCl/"
 Entering Link 1 = /home/andy/gdvj28p/gdv/l1.exe PID=   1010002.
  
 Copyright (c) 1988-2024, Gaussian, Inc.  All Rights Reserved.
  
 This is the private, development version of
 the Gaussian(R) DV system of programs. It is based on
 the Gaussian(R) 16 system (copyright 2016, Gaussian, Inc.),
 the Gaussian(R) 09 system (copyright 2009, Gaussian, Inc.),
 the Gaussian(R) 03 system (copyright 2003, Gaussian, Inc.),
 the Gaussian(R) 98 system (copyright 1998, Gaussian, Inc.),
 the Gaussian(R) 94 system (copyright 1995, Gaussian, Inc.),
 the Gaussian 92(TM) system (copyright 1992, Gaussian, Inc.),
 the Gaussian 90(TM) system (copyright 1990, Gaussian, Inc.),
 the Gaussian 88(TM) system (copyright 1988, Gaussian, Inc.),
 the Gaussian 86(TM) system (copyright 1986, Carnegie Mellon
 University), and the Gaussian 82(TM) system (copyright 1983,
 Carnegie Mellon University). Gaussian is a federally registered
 trademark of Gaussian, Inc.
  
 This software contains proprietary and confidential information,
 including trade secrets, belonging to Gaussian, Inc.
  
 This software is provided under written license and may be
 used, copied, transmitted, or stored only in accord with that
 written license.
  
 The following legend is applicable only to US Government
 contracts under FAR:
  
                    RESTRICTED RIGHTS LEGEND
  
 Use, reproduction and disclosure by the US Government is
 subject to restrictions as set forth in subparagraphs (a)
 and (c) of the Commercial Computer Software - Restricted
 Rights clause in FAR 52.227-19.
  
 Gaussian, Inc.
 340 Quinnipiac St., Bldg. 40, Wallingford CT 06492
  
  
 ---------------------------------------------------------------
 Warning -- This program may not be used in any manner that
 competes with the business of Gaussian, Inc. or will provide
 assistance to any competitor of Gaussian, Inc.  The licensee
 of this program is prohibited from giving any competitor of
 Gaussian, Inc. access to this program.  By using this program,
 the user acknowledges that Gaussian, Inc. is engaged in the
 business of creating and licensing software in the field of
 computational chemistry and represents and warrants to the
 licensee that it is not a competitor of Gaussian, Inc. and that
 it will not use this program in any manner prohibited above.
 ---------------------------------------------------------------
  

 Cite this work as:
 Gaussian Development Version, Revision J.28+,
 M. J. Frisch, G. W. Trucks, G. Scalmani, J. R. Cheeseman, X. Li, 
 J. Bloino, B. G. Janesko, A. V. Marenich, J. Zheng, F. Lipparini, 
 A. Jenkins, A. Liu, H. Liu, H. B. Schlegel, G. E. Scuseria, 
 M. A. Robb, V. Barone, G. A. Petersson, H. Nakatsuji, B. Mennucci, 
 C. Adamo, N. Rega, M. Caricato, H. P. Hratchian, J. V. Ortiz, 
 F. Pawlowski, A. F. Izmaylov, H. Hu, C. Liao, J. L. Sonnenberg, 
 D. Williams-Young, F. Ding, R. Gomperts, F. Egidi, J. Goings, 
 B. Peng, A. Petrone, T. Henderson, D. Ranasinghe, V. G. Zakrzewski, 
 J. Gao, G. Zheng, W. Liang, M. Hada, M. Ehara, K. Toyota, R. Fukuda, 
 J. Hasegawa, M. Ishida, T. Nakajima, Y. Honda, O. Kitao, H. Nakai, 
 T. Vreven, K. Throssell, J. A. Montgomery, Jr., J. E. Peralta, 
 F. Ogliaro, M. J. Bearpark, J. J. Heyd, E. N. Brothers, K. N. Kudin, 
 V. N. Staroverov, T. A. Keith, R. Kobayashi, J. Normand, 
 K. Raghavachari, A. P. Rendell, J. C. Burant, S. S. Iyengar, 
 M. Cossi, J. M. Millam, M. Klene, R. Cammi, R. L. Martin, O. Farkas, 
 J. B. Foresman, and D. J. Fox, Gaussian, Inc., Wallingford CT, 2023.
 
 *******************************************
 Gaussian DV:  ES64L-GDVRevJ.28+ 16-Apr-2024
                 23-Oct-2025 
 *******************************************
 %chk=gdv.chk
 %mem=32GB
 %nproc=12
 Will use up to   12 processors via shared memory.
 ----------------------------------------------------------------------
 #P ucis(mo,nstates=15)/cc-pVTZ extrabasis gfprint nosymm int(acc2e=16)
  SCF(NoVarAcc,NoIncFock,MaxCYC=64) IOp(3/196=1) IOp(3/33=1) Pop=Full I
 Op(3/117=1,3/194=10003501,3/195=5,6/18=1,8/10=91,8/37=7,8/38=-10,9/127
 =2) OUTPUT=(faf,i4lab,Files=(514,619,751,870,1,2,3,4,5,6,7,8,9,10,11,1
 2,13,14))
 ----------------------------------------------------------------------
 1/37=-1,38=1,172=1/1;
 2/12=2,15=1/2;
 3/5=16,6=1,10=1,11=2,24=100,25=1,27=16,30=1,33=1,116=2,117=1,160=20,194=10003501,195=5,196=1/1,2,3,8;
 4//1;
 5/5=100002,7=64,38=1,87=16/2;
 8/6=1,10=91,37=7,38=-10,87=16/1,4;
 9/41=15,42=3,87=16,127=2/14;
 6/7=3,18=1,87=16,125=20/1;
 99/5=1,6=100000,9=1,125=20/99;
 Leave Link    1 at Thu Oct 23 10:22:11 2025, MaxMem=  4294967296 cpu:               0.1 elap:               0.1
 (Enter /home/andy/gdvj28p/gdv/l101.exe)
 -------------------
 Title Card Required
 -------------------
 Symbolic Z-matrix:
 Charge =     0 Multiplicity =     1
 Cl                    0.        0.       -0.65735 
 H                     0.        0.        0.65735 
 
 ITRead=  0  0
 MicOpt= -1 -1
 NAtoms=      2 NQM=        2 NQMF=       0 NMMI=      0 NMMIF=      0
                NMic=       0 NMicF=      0.
                    Isotopes and Nuclear Properties:
 (Nuclear quadrupole moments (NQMom) in fm**2, nuclear magnetic moments (NMagM)
  in nuclear magnetons)

  Atom         1           2
 IAtWgt=          35           1
 AtmWgt=  34.9688527   1.0078250
 NucSpn=           3           1
 AtZEff=   -0.000000   -0.000000
 NQMom=   -8.1650000   0.0000000
 NMagM=    0.8218740   2.7928460
 AtZNuc=  17.0000000   1.0000000
 Leave Link  101 at Thu Oct 23 10:22:11 2025, MaxMem=  4294967296 cpu:               0.2 elap:               0.2
 (Enter /home/andy/gdvj28p/gdv/l202.exe)
                          Input orientation:                          
 ---------------------------------------------------------------------
 Center     Atomic      Atomic             Coordinates (Angstroms)
 Number     Number       Type             X           Y           Z
 ---------------------------------------------------------------------
      1         17           0        0.000000    0.000000   -0.657350
      2          1           0        0.000000    0.000000    0.657350
 ---------------------------------------------------------------------
 Symmetry turned off by external request.
 Stoichiometry    ClH
 Framework group  C*V[C*(HCl)]
 Deg. of freedom     1
 Full point group                 C*V     NOp   4
 Rotational constants (GHZ):           0.0000000         298.4821765         298.4821765
 Leave Link  202 at Thu Oct 23 10:22:11 2025, MaxMem=  4294967296 cpu:               0.0 elap:               0.0
 (Enter /home/andy/gdvj28p/gdv/l301.exe)
                         Coordinates in L301:                         
 ---------------------------------------------------------------------
 Center     Atomic      Atomic             Coordinates (Angstroms)
 Number     Number       Type             X           Y           Z
 ---------------------------------------------------------------------
      1         17           0        0.000000    0.000000   -0.657350
      2          1           0        0.000000    0.000000    0.657350
 ---------------------------------------------------------------------
 Standard basis: CC-pVTZ (5D, 7F)
 AtmSel:  Line="Cl H 0"
 AtmSel:  NamVal=GCentL NAtLst=     2 NIVal=     0 NNoVal=     0:
 AtmSel:  IAtLst=      1      2
 Centers:       1      2
 s 1 1.00
     Exponent=  2.5600000000D-02 Coefficients=  1.0000000000D+00
 s 1 1.00
     Exponent=  1.2800000000D-02 Coefficients=  1.0000000000D+00
 s 1 1.00
     Exponent=  6.4000000000D-03 Coefficients=  1.0000000000D+00
 p 1 1.00
     Exponent=  2.5600000000D-02 Coefficients=  1.0000000000D+00
 p 1 1.00
     Exponent=  1.2800000000D-02 Coefficients=  1.0000000000D+00
 d 1 1.00
     Exponent=  5.1200000000D-02 Coefficients=  1.0000000000D+00
 d 1 1.00
     Exponent=  2.5600000000D-02 Coefficients=  1.0000000000D+00
 d 1 1.00
     Exponent=  1.2800000000D-02 Coefficients=  1.0000000000D+00
 f 1 1.00
     Exponent=  2.5600000000D-02 Coefficients=  1.0000000000D+00
 ****
 FixB: optimizing general contractions.
 Ernie: Thresh=  0.10000D-02 Tol=  0.10000D-05 Strict=F.
 IA=     1 ShT= 0 ShC= 0 NL=   8 NS=   5.
 IA=     1 L=0 SC=0 ISt=    1 NBk=    3 NP=   13 IndPr=    0.
 DoElim1:  L=0 select primitive    3 from    2 using    1 C= 2.01D-03
 DoElim1:  L=0 select primitive    3 from    3 using    1 C= 2.01D-03
 DoElim1:  L=0 select primitive    6 from    3 using    2 C=-1.25D-03
 DoElim2:  L=0 select primitive   13 from    2 using    3 C= 7.23D-01
 DoElim2:  L=0 select primitive   13 from    1 using    3 C= 7.23D-01
 DoElim2:  L=0 select primitive   12 from    1 using    2 C= 5.61D-01
 Delete L=0 primitive    6 from    3 C=  6.53D-21.
 Delete L=0 primitive    4 from    3 C=  8.93D-07.
 Delete L=0 primitive    3 from    3 C=  2.63D-20.
 Delete L=0 primitive    2 from    3 C=  3.61D-08.
 Delete L=0 primitive    1 from    3 C=  2.93D-09.
 Delete L=0 primitive   13 from    2 C=  2.25D-19.
 Delete L=0 primitive    3 from    2 C=  4.79D-20.
 Delete L=0 primitive    2 from    2 C=  4.81D-07.
 Delete L=0 primitive    1 from    2 C=  4.00D-08.
 Delete L=0 primitive   13 from    1 C=  6.74D-21.
 Delete L=0 primitive   12 from    1 C=  4.86D-21.
 IA=     1 L=0 SC=0 ISt=    0 NBk=    0 NP=    0 IndPr=   28.
 IA=     1 ShT= 1 ShC= 1 NL=   6 NS=   4.
 IA=     1 L=1 SC=1 ISt=    1 NBk=    2 NP=    7 IndPr=    0.
 DoElim1:  L=1 select primitive    1 from    2 using    1 C= 2.40D-03
 DoElim2:  L=1 select primitive    7 from    1 using    2 C= 5.63D-01
 Delete L=1 primitive    1 from    2 C=  3.92D-20.
 Delete L=1 primitive    7 from    1 C=  2.76D-19.
 IA=     1 L=1 SC=1 ISt=    0 NBk=    0 NP=    0 IndPr=   12.
 IA=     1 ShT= 2 ShC= 2 NL=   5 NS=   5.
 IA=     1 L=2 SC=2 ISt=    0 NBk=    0 NP=    0 IndPr=    0.
 IA=     1 ShT= 3 ShC= 3 NL=   2 NS=   2.
 IA=     1 L=3 SC=3 ISt=    0 NBk=    0 NP=    0 IndPr=    0.
 IA=     2 ShT= 0 ShC= 0 NL=   6 NS=   5.
 IA=     2 L=0 SC=0 ISt=    0 NBk=    0 NP=    0 IndPr=    0.
 IA=     2 ShT= 1 ShC= 1 NL=   4 NS=   4.
 IA=     2 L=1 SC=1 ISt=    0 NBk=    0 NP=    0 IndPr=    0.
 IA=     2 ShT= 2 ShC= 2 NL=   4 NS=   4.
 IA=     2 L=2 SC=2 ISt=    0 NBk=    0 NP=    0 IndPr=    0.
 IA=     2 ShT= 3 ShC= 3 NL=   1 NS=   1.
 IA=     2 L=3 SC=3 ISt=    0 NBk=    0 NP=    0 IndPr=    0.
 Ernie:  13 primitive shells out of 86 were deleted.
   110 AO functions
 AO basis set (Overlap normalization):
 Atom Cl1      Shell     1 S  11     bf    1 -     1          0.000000000000          0.000000000000         -1.242211467983
      0.4561000000D+06  0.4932294768D-04
      0.6833000000D+05  0.3832079673D-03
      0.1555000000D+05  0.2009478156D-02
      0.4405000000D+04  0.8389501239D-02
      0.1439000000D+04  0.2948439505D-01
      0.5204000000D+03  0.8787599479D-01
      0.2031000000D+03  0.2115897588D+00
      0.8396000000D+02  0.3656115543D+00
      0.3620000000D+02  0.3412463497D+00
      0.1583000000D+02  0.1021625703D+00
      0.6334000000D+01  0.2142499488D-02
 Atom Cl1      Shell     2 S   9     bf    2 -     2          0.000000000000          0.000000000000         -1.242211467983
      0.4405000000D+04 -0.2217479249D-05
      0.1439000000D+04 -0.1711897081D-03
      0.5204000000D+03 -0.1279228461D-02
      0.2031000000D+03 -0.9329562653D-02
      0.8396000000D+02 -0.3989100624D-01
      0.3620000000D+02 -0.1055360847D+00
      0.1583000000D+02  0.9362024461D-02
      0.6334000000D+01  0.5105111402D+00
      0.2694000000D+01  0.5731507365D+00
 Atom Cl1      Shell     3 S   8     bf    3 -     3          0.000000000000          0.000000000000         -1.242211467983
      0.1439000000D+04  0.4039492452D-05
      0.2031000000D+03  0.2124817652D-03
      0.8396000000D+02  0.8594844525D-03
      0.3620000000D+02  0.4632481592D-02
      0.1583000000D+02  0.4473434898D-03
      0.6334000000D+01 -0.7384382448D-01
      0.2694000000D+01 -0.3622719942D+00
      0.4313000000D+00  0.1166203372D+01
 Atom Cl1      Shell     4 S   1     bf    4 -     4          0.000000000000          0.000000000000         -1.242211467983
      0.9768000000D+00  0.1000000000D+01
 Atom Cl1      Shell     5 S   1     bf    5 -     5          0.000000000000          0.000000000000         -1.242211467983
      0.1625000000D+00  0.1000000000D+01
 Atom Cl1      Shell     6 S   1     bf    6 -     6          0.000000000000          0.000000000000         -1.242211467983
      0.2560000000D-01  0.1000000000D+01
 Atom Cl1      Shell     7 S   1     bf    7 -     7          0.000000000000          0.000000000000         -1.242211467983
      0.1280000000D-01  0.1000000000D+01
 Atom Cl1      Shell     8 S   1     bf    8 -     8          0.000000000000          0.000000000000         -1.242211467983
      0.6400000000D-02  0.1000000000D+01
 Atom Cl1      Shell     9 P   6     bf    9 -    11          0.000000000000          0.000000000000         -1.242211467983
      0.6633000000D+03  0.2472064025D-02
      0.1568000000D+03  0.1975502338D-01
      0.4998000000D+02  0.9099173548D-01
      0.1842000000D+02  0.2631878341D+00
      0.7240000000D+01  0.4490780732D+00
      0.2922000000D+01  0.3601830723D+00
 Atom Cl1      Shell    10 P   6     bf   12 -    14          0.000000000000          0.000000000000         -1.242211467983
      0.1568000000D+03  0.3034278089D-04
      0.4998000000D+02 -0.1224758259D-02
      0.1842000000D+02 -0.6014297716D-02
      0.7240000000D+01 -0.2764013227D-01
      0.2922000000D+01  0.4351056122D-03
      0.3818000000D+00  0.1003072725D+01
 Atom Cl1      Shell    11 P   1     bf   15 -    17          0.000000000000          0.000000000000         -1.242211467983
      0.1022000000D+01  0.1000000000D+01
 Atom Cl1      Shell    12 P   1     bf   18 -    20          0.000000000000          0.000000000000         -1.242211467983
      0.1301000000D+00  0.1000000000D+01
 Atom Cl1      Shell    13 P   1     bf   21 -    23          0.000000000000          0.000000000000         -1.242211467983
      0.2560000000D-01  0.1000000000D+01
 Atom Cl1      Shell    14 P   1     bf   24 -    26          0.000000000000          0.000000000000         -1.242211467983
      0.1280000000D-01  0.1000000000D+01
 Atom Cl1      Shell    15 D   1     bf   27 -    31          0.000000000000          0.000000000000         -1.242211467983
      0.1046000000D+01  0.1000000000D+01
 Atom Cl1      Shell    16 D   1     bf   32 -    36          0.000000000000          0.000000000000         -1.242211467983
      0.3440000000D+00  0.1000000000D+01
 Atom Cl1      Shell    17 D   1     bf   37 -    41          0.000000000000          0.000000000000         -1.242211467983
      0.5120000000D-01  0.1000000000D+01
 Atom Cl1      Shell    18 D   1     bf   42 -    46          0.000000000000          0.000000000000         -1.242211467983
      0.2560000000D-01  0.1000000000D+01
 Atom Cl1      Shell    19 D   1     bf   47 -    51          0.000000000000          0.000000000000         -1.242211467983
      0.1280000000D-01  0.1000000000D+01
 Atom Cl1      Shell    20 F   1     bf   52 -    58          0.000000000000          0.000000000000         -1.242211467983
      0.7060000000D+00  0.1000000000D+01
 Atom Cl1      Shell    21 F   1     bf   59 -    65          0.000000000000          0.000000000000         -1.242211467983
      0.2560000000D-01  0.1000000000D+01
 Atom H2       Shell    22 S   3     bf   66 -    66          0.000000000000          0.000000000000          1.242211467983
      0.3387000000D+02  0.2549486323D-01
      0.5095000000D+01  0.1903627659D+00
      0.1159000000D+01  0.8521620222D+00
 Atom H2       Shell    23 S   1     bf   67 -    67          0.000000000000          0.000000000000          1.242211467983
      0.3258000000D+00  0.1000000000D+01
 Atom H2       Shell    24 S   1     bf   68 -    68          0.000000000000          0.000000000000          1.242211467983
      0.1027000000D+00  0.1000000000D+01
 Atom H2       Shell    25 S   1     bf   69 -    69          0.000000000000          0.000000000000          1.242211467983
      0.2560000000D-01  0.1000000000D+01
 Atom H2       Shell    26 S   1     bf   70 -    70          0.000000000000          0.000000000000          1.242211467983
      0.1280000000D-01  0.1000000000D+01
 Atom H2       Shell    27 S   1     bf   71 -    71          0.000000000000          0.000000000000          1.242211467983
      0.6400000000D-02  0.1000000000D+01
 Atom H2       Shell    28 P   1     bf   72 -    74          0.000000000000          0.000000000000          1.242211467983
      0.1407000000D+01  0.1000000000D+01
 Atom H2       Shell    29 P   1     bf   75 -    77          0.000000000000          0.000000000000          1.242211467983
      0.3880000000D+00  0.1000000000D+01
 Atom H2       Shell    30 P   1     bf   78 -    80          0.000000000000          0.000000000000          1.242211467983
      0.2560000000D-01  0.1000000000D+01
 Atom H2       Shell    31 P   1     bf   81 -    83          0.000000000000          0.000000000000          1.242211467983
      0.1280000000D-01  0.1000000000D+01
 Atom H2       Shell    32 D   1     bf   84 -    88          0.000000000000          0.000000000000          1.242211467983
      0.1057000000D+01  0.1000000000D+01
 Atom H2       Shell    33 D   1     bf   89 -    93          0.000000000000          0.000000000000          1.242211467983
      0.5120000000D-01  0.1000000000D+01
 Atom H2       Shell    34 D   1     bf   94 -    98          0.000000000000          0.000000000000          1.242211467983
      0.2560000000D-01  0.1000000000D+01
 Atom H2       Shell    35 D   1     bf   99 -   103          0.000000000000          0.000000000000          1.242211467983
      0.1280000000D-01  0.1000000000D+01
 Atom H2       Shell    36 F   1     bf  104 -   110          0.000000000000          0.000000000000          1.242211467983
      0.2560000000D-01  0.1000000000D+01
 LdAtmC:  AtmChg=    17.000000     1.000000
 GetPMM: IRwPM=    824 LRwPM=      0 LPMAll=      2
 AtZEff=    -14.2400000     -1.0000000
   110 basis functions,   185 primitive gaussians,   128 cartesian basis functions
     9 alpha electrons        9 beta electrons
       nuclear repulsion energy         6.8426352671 Hartrees.
 IS=     1 IAt=     1 ISR=     1 T=0 IP=      1 IndIP=      1 IndIPD=      0 C=  6.169560D-01  0.000000D+00                             NZ=T
 IS=     1 IAt=     1 ISR=     1 T=0 IP=      2 IndIP=      2 IndIPD=      1 C=  1.154259D+00  0.000000D+00                             NZ=T
 IS=     1 IAt=     1 ISR=     1 T=0 IP=      3 IndIP=      3 IndIPD=      2 C=  1.994303D+00  0.000000D+00                             NZ=T
 IS=     1 IAt=     1 ISR=     1 T=0 IP=      4 IndIP=      4 IndIPD=      3 C=  3.233000D+00  0.000000D+00                             NZ=T
 IS=     1 IAt=     1 ISR=     1 T=0 IP=      5 IndIP=      5 IndIPD=      4 C=  4.909620D+00  0.000000D+00                             NZ=T
 IS=     1 IAt=     1 ISR=     1 T=0 IP=      6 IndIP=      6 IndIPD=      5 C=  6.823910D+00  0.000000D+00                             NZ=T
 IS=     1 IAt=     1 ISR=     1 T=0 IP=      7 IndIP=      7 IndIPD=      6 C=  8.113107D+00  0.000000D+00                             NZ=T
 IS=     1 IAt=     1 ISR=     1 T=0 IP=      8 IndIP=      8 IndIPD=      7 C=  7.227437D+00  0.000000D+00                             NZ=T
 IS=     1 IAt=     1 ISR=     1 T=0 IP=      9 IndIP=      9 IndIPD=      8 C=  3.589298D+00  0.000000D+00                             NZ=T
 IS=     1 IAt=     1 ISR=     1 T=0 IP=     10 IndIP=     10 IndIPD=      9 C=  5.778466D-01  0.000000D+00                             NZ=T
 IS=     1 IAt=     1 ISR=     1 T=0 IP=     11 IndIP=     11 IndIPD=     10 C=  6.096623D-03  0.000000D+00                             NZ=T
 IS=     2 IAt=     1 ISR=     2 T=0 IP=      1 IndIP=     12 IndIPD=      0 C= -8.545335D-04  0.000000D+00                             NZ=T
 IS=     2 IAt=     1 ISR=     2 T=0 IP=      2 IndIP=     13 IndIPD=      1 C= -2.850581D-02  0.000000D+00                             NZ=T
 IS=     2 IAt=     1 ISR=     2 T=0 IP=      3 IndIP=     14 IndIPD=      2 C= -9.933703D-02  0.000000D+00                             NZ=T
 IS=     2 IAt=     1 ISR=     2 T=0 IP=      4 IndIP=     15 IndIPD=      3 C= -3.577287D-01  0.000000D+00                             NZ=T
 IS=     2 IAt=     1 ISR=     2 T=0 IP=      5 IndIP=     16 IndIPD=      4 C= -7.885685D-01  0.000000D+00                             NZ=T
 IS=     2 IAt=     1 ISR=     2 T=0 IP=      6 IndIP=     17 IndIPD=      5 C= -1.110050D+00  0.000000D+00                             NZ=T
 IS=     2 IAt=     1 ISR=     2 T=0 IP=      7 IndIP=     18 IndIPD=      6 C=  5.295300D-02  0.000000D+00                             NZ=T
 IS=     2 IAt=     1 ISR=     2 T=0 IP=      8 IndIP=     19 IndIPD=      7 C=  1.452693D+00  0.000000D+00                             NZ=T
 IS=     2 IAt=     1 ISR=     2 T=0 IP=      9 IndIP=     20 IndIPD=      8 C=  8.589683D-01  0.000000D+00                             NZ=T
 IS=     3 IAt=     1 ISR=     3 T=0 IP=      1 IndIP=     21 IndIPD=      0 C=  6.726397D-04  0.000000D+00                             NZ=T
 IS=     3 IAt=     1 ISR=     3 T=0 IP=      2 IndIP=     22 IndIPD=      1 C=  8.147309D-03  0.000000D+00                             NZ=T
 IS=     3 IAt=     1 ISR=     3 T=0 IP=      3 IndIP=     23 IndIPD=      2 C=  1.699035D-02  0.000000D+00                             NZ=T
 IS=     3 IAt=     1 ISR=     3 T=0 IP=      4 IndIP=     24 IndIPD=      3 C=  4.872538D-02  0.000000D+00                             NZ=T
 IS=     3 IAt=     1 ISR=     3 T=0 IP=      5 IndIP=     25 IndIPD=      4 C=  2.530241D-03  0.000000D+00                             NZ=T
 IS=     3 IAt=     1 ISR=     3 T=0 IP=      6 IndIP=     26 IndIPD=      5 C= -2.101275D-01  0.000000D+00                             NZ=T
 IS=     3 IAt=     1 ISR=     3 T=0 IP=      7 IndIP=     27 IndIPD=      6 C= -5.429290D-01  0.000000D+00                             NZ=T
 IS=     3 IAt=     1 ISR=     3 T=0 IP=      8 IndIP=     28 IndIPD=      7 C=  4.423530D-01  0.000000D+00                             NZ=T
 IS=     4 IAt=     1 ISR=     4 T=0 IP=      1 IndIP=     29 IndIPD=      0 C=  7.002681D-01  0.000000D+00                             NZ=T
 IS=     5 IAt=     1 ISR=     5 T=0 IP=      1 IndIP=     30 IndIPD=      0 C=  1.824106D-01  0.000000D+00                             NZ=T
 IS=     6 IAt=     1 ISR=     6 T=0 IP=      1 IndIP=     31 IndIPD=      0 C=  4.561315D-02  0.000000D+00                             NZ=T
 IS=     7 IAt=     1 ISR=     7 T=0 IP=      1 IndIP=     32 IndIPD=      0 C=  2.712174D-02  0.000000D+00                             NZ=T
 IS=     8 IAt=     1 ISR=     8 T=0 IP=      1 IndIP=     33 IndIPD=      0 C=  1.612668D-02  0.000000D+00                             NZ=T
 IS=     9 IAt=     1 ISR=     9 T=1 IP=      1 IndIP=     34 IndIPD=      0 C=  0.000000D+00  1.186144D+01                             NZ=T
 IS=     9 IAt=     1 ISR=     9 T=1 IP=      2 IndIP=     35 IndIPD=      1 C=  0.000000D+00  1.562429D+01                             NZ=T
 IS=     9 IAt=     1 ISR=     9 T=1 IP=      3 IndIP=     36 IndIPD=      2 C=  0.000000D+00  1.723603D+01                             NZ=T
 IS=     9 IAt=     1 ISR=     9 T=1 IP=      4 IndIP=     37 IndIPD=      3 C=  0.000000D+00  1.431588D+01                             NZ=T
 IS=     9 IAt=     1 ISR=     9 T=1 IP=      5 IndIP=     38 IndIPD=      4 C=  0.000000D+00  7.602127D+00                             NZ=T
 IS=     9 IAt=     1 ISR=     9 T=1 IP=      6 IndIP=     39 IndIPD=      5 C=  0.000000D+00  1.961389D+00                             NZ=T
 IS=    10 IAt=     1 ISR=    10 T=1 IP=      1 IndIP=     40 IndIPD=      0 C=  0.000000D+00  2.399817D-02                             NZ=T
 IS=    10 IAt=     1 ISR=    10 T=1 IP=      2 IndIP=     41 IndIPD=      1 C=  0.000000D+00 -2.319988D-01                             NZ=T
 IS=    10 IAt=     1 ISR=    10 T=1 IP=      3 IndIP=     42 IndIPD=      2 C=  0.000000D+00 -3.271426D-01                             NZ=T
 IS=    10 IAt=     1 ISR=    10 T=1 IP=      4 IndIP=     43 IndIPD=      3 C=  0.000000D+00 -4.679004D-01                             NZ=T
 IS=    10 IAt=     1 ISR=    10 T=1 IP=      5 IndIP=     44 IndIPD=      4 C=  0.000000D+00  2.369382D-03                             NZ=T
 IS=    10 IAt=     1 ISR=    10 T=1 IP=      6 IndIP=     45 IndIPD=      5 C=  0.000000D+00  4.291088D-01                             NZ=T
 IS=    11 IAt=     1 ISR=    11 T=1 IP=      1 IndIP=     46 IndIPD=      0 C=  0.000000D+00  1.464717D+00                             NZ=T
 IS=    12 IAt=     1 ISR=    12 T=1 IP=      1 IndIP=     47 IndIPD=      0 C=  0.000000D+00  1.113747D-01                             NZ=T
 IS=    13 IAt=     1 ISR=    13 T=1 IP=      1 IndIP=     48 IndIPD=      0 C=  0.000000D+00  1.459621D-02                             NZ=T
 IS=    14 IAt=     1 ISR=    14 T=1 IP=      1 IndIP=     49 IndIPD=      0 C=  0.000000D+00  6.136950D-03                             NZ=T
 IS=    15 IAt=     1 ISR=    15 T=2 IP=      1 IndIP=     50 IndIPD=      1 C=  0.000000D+00  0.000000D+00  1.780696D+00  0.000000D+00 NZ=T
 IS=    16 IAt=     1 ISR=    16 T=2 IP=      1 IndIP=     51 IndIPD=      2 C=  0.000000D+00  0.000000D+00  2.543236D-01  0.000000D+00 NZ=T
 IS=    17 IAt=     1 ISR=    17 T=2 IP=      1 IndIP=     52 IndIPD=      3 C=  0.000000D+00  0.000000D+00  9.070514D-03  0.000000D+00 NZ=T
 IS=    18 IAt=     1 ISR=    18 T=2 IP=      1 IndIP=     53 IndIPD=      4 C=  0.000000D+00  0.000000D+00  2.696680D-03  0.000000D+00 NZ=T
 IS=    19 IAt=     1 ISR=    19 T=2 IP=      1 IndIP=     54 IndIPD=      5 C=  0.000000D+00  0.000000D+00  8.017277D-04  0.000000D+00 NZ=T
 IS=    20 IAt=     1 ISR=    20 T=3 IP=      1 IndIP=     55 IndIPD=      6 C=  0.000000D+00  0.000000D+00  0.000000D+00  6.726126D-01 NZ=T
 IS=    21 IAt=     1 ISR=    21 T=3 IP=      1 IndIP=     56 IndIPD=      7 C=  0.000000D+00  0.000000D+00  0.000000D+00  3.859174D-04 NZ=T
 IS=    22 IAt=     2 ISR=     1 T=0 IP=      1 IndIP=     57 IndIPD=      0 C=  2.551081D-01  0.000000D+00                             NZ=T
 IS=    22 IAt=     2 ISR=     1 T=0 IP=      2 IndIP=     58 IndIPD=      1 C=  4.600979D-01  0.000000D+00                             NZ=T
 IS=    22 IAt=     2 ISR=     1 T=0 IP=      3 IndIP=     59 IndIPD=      2 C=  6.784141D-01  0.000000D+00                             NZ=T
 IS=    23 IAt=     2 ISR=     2 T=0 IP=      1 IndIP=     60 IndIPD=      0 C=  3.073431D-01  0.000000D+00                             NZ=T
 IS=    24 IAt=     2 ISR=     3 T=0 IP=      1 IndIP=     61 IndIPD=      0 C=  1.292968D-01  0.000000D+00                             NZ=T
 IS=    25 IAt=     2 ISR=     4 T=0 IP=      1 IndIP=     62 IndIPD=      0 C=  4.561315D-02  0.000000D+00                             NZ=T
 IS=    26 IAt=     2 ISR=     5 T=0 IP=      1 IndIP=     63 IndIPD=      0 C=  2.712174D-02  0.000000D+00                             NZ=T
 IS=    27 IAt=     2 ISR=     6 T=0 IP=      1 IndIP=     64 IndIPD=      0 C=  1.612668D-02  0.000000D+00                             NZ=T
 IS=    28 IAt=     2 ISR=     7 T=1 IP=      1 IndIP=     65 IndIPD=      0 C=  0.000000D+00  2.184277D+00                             NZ=T
 IS=    29 IAt=     2 ISR=     8 T=1 IP=      1 IndIP=     66 IndIPD=      0 C=  0.000000D+00  4.364955D-01                             NZ=T
 IS=    30 IAt=     2 ISR=     9 T=1 IP=      1 IndIP=     67 IndIPD=      0 C=  0.000000D+00  1.459621D-02                             NZ=T
 IS=    31 IAt=     2 ISR=    10 T=1 IP=      1 IndIP=     68 IndIPD=      0 C=  0.000000D+00  6.136950D-03                             NZ=T
 IS=    32 IAt=     2 ISR=    11 T=2 IP=      1 IndIP=     69 IndIPD=      8 C=  0.000000D+00  0.000000D+00  1.813597D+00  0.000000D+00 NZ=T
 IS=    33 IAt=     2 ISR=    12 T=2 IP=      1 IndIP=     70 IndIPD=      9 C=  0.000000D+00  0.000000D+00  9.070514D-03  0.000000D+00 NZ=T
 IS=    34 IAt=     2 ISR=    13 T=2 IP=      1 IndIP=     71 IndIPD=     10 C=  0.000000D+00  0.000000D+00  2.696680D-03  0.000000D+00 NZ=T
 IS=    35 IAt=     2 ISR=    14 T=2 IP=      1 IndIP=     72 IndIPD=     11 C=  0.000000D+00  0.000000D+00  8.017277D-04  0.000000D+00 NZ=T
 IS=    36 IAt=     2 ISR=    15 T=3 IP=      1 IndIP=     73 IndIPD=     12 C=  0.000000D+00  0.000000D+00  0.000000D+00  3.859174D-04 NZ=T
 IExCor=         0 DFT=F Ex=HF Corr=None N6=None ScaHFX=  1.000000
 ScaDFX=  1.000000  1.000000  1.000000  1.000000  1.000000  0.000000
 ScaDFX=  0.000000  0.000000  0.000000  0.000000  0.000000  0.000000
 Grid=UltraFine IRanWt=     -1 IRanGd=            0 ICorTp=0 IEDCtl=  2004
 NAtoms=    2 NActive=    2 NUniq=    2 SFac= 1.00D+00 NAtFMM=   60 NAOKFM=F Big=F
 Integral buffers will be    131072 words long.
 Raffenetti 2 integral format.
 Two-electron integral symmetry is turned off.
 Leave Link  301 at Thu Oct 23 10:22:12 2025, MaxMem=  4294967296 cpu:               0.1 elap:               0.0
 (Enter /home/andy/gdvj28p/gdv/l302.exe)
 GetPMM: IRwPM=    824 LRwPM=      0 LPMAll=      2
 NPDir=0 NMtPBC=     1 NCelOv=     1 NCel=       1 NClECP=     1 NCelD=      1
         NCelK=      1 NCelE2=     1 NClLst=     1 CellRange=     0.0.
 One-electron integrals computed using PRISM.
 Entering OneElI...
 Calculate overlap and kinetic energy integrals
    NBasis = 110  MinDer = 0  MaxDer = 0
 Requested accuracy = 0.1000D-12
 PrmmSu-InSpLW:  IPartL=    0 NPrtUS=   12 NPrtUL=    1 DoSpLW=F IThBeg=    0 IThEnd=   11 NThAct=   12.
 PrSmSu:  IncTry=   512 NBBP=            666 NTPThr=   100 NPartT=   12 Incr=           1 LDynOK=F GPUOK=F.
 PrsmSu:  NPrtUS=  12 ThrOK=T IAlg=1 LenDen=           0 ISkipM=0 DoSpLW=F IThBeg=    0 IThEnd=   11.
 Prism:   IPart=     0 DynPar=F LinDyn=F Incr=           1.
 PRISM was handed   357868054 working-precision words and   666 shell-pairs
 PRISM was handed   357868054 working-precision words and   666 shell-pairs
 PRISM was handed   357868054 working-precision words and   666 shell-pairs
 PRISM was handed   357868054 working-precision words and   666 shell-pairs
 PRISM was handed   357868054 working-precision words and   666 shell-pairs
 PRISM was handed   357868054 working-precision words and   666 shell-pairs
 PRISM was handed   357868054 working-precision words and   666 shell-pairs
 PRISM was handed   357868054 working-precision words and   666 shell-pairs
 PRISM was handed   357868054 working-precision words and   666 shell-pairs
 PRISM was handed   357868054 working-precision words and   666 shell-pairs
 PRISM was handed   357868054 working-precision words and   666 shell-pairs
 PRISM was handed   357868054 working-precision words and   666 shell-pairs
 PrSmSu:  NxtVal=             13.
 *** Overlap *** 
                1             2             3             4             5 
      1  0.100000D+01
      2  0.273504D+00  0.100000D+01
      3 -0.407450D-01  0.151509D+00  0.100000D+01
      4  0.145135D+00  0.742260D+00  0.690915D+00  0.100000D+01
      5  0.392234D-01  0.264355D+00  0.855112D+00  0.584901D+00  0.100000D+01
      6  0.987111D-02  0.702768D-01  0.329790D+00  0.177222D+00  0.567913D+00
      7  0.587293D-02  0.420333D-01  0.205377D+00  0.107428D+00  0.375335D+00
      8  0.349312D-02  0.250671D-01  0.125032D+00  0.645017D-01  0.235980D+00
      9  0.000000D+00  0.000000D+00  0.000000D+00  0.000000D+00  0.000000D+00
     10  0.000000D+00  0.000000D+00  0.000000D+00  0.000000D+00  0.000000D+00
     11  0.000000D+00  0.000000D+00  0.000000D+00  0.000000D+00  0.000000D+00
     12  0.000000D+00  0.000000D+00  0.000000D+00  0.000000D+00  0.000000D+00
     13  0.000000D+00  0.000000D+00  0.000000D+00  0.000000D+00  0.000000D+00
     14  0.000000D+00  0.000000D+00  0.000000D+00  0.000000D+00  0.000000D+00
     15  0.000000D+00  0.000000D+00  0.000000D+00  0.000000D+00  0.000000D+00
     16  0.000000D+00  0.000000D+00  0.000000D+00  0.000000D+00  0.000000D+00
     17  0.000000D+00  0.000000D+00  0.000000D+00  0.000000D+00  0.000000D+00
     18  0.000000D+00  0.000000D+00  0.000000D+00  0.000000D+00  0.000000D+00
     19  0.000000D+00  0.000000D+00  0.000000D+00  0.000000D+00  0.000000D+00
     20  0.000000D+00  0.000000D+00  0.000000D+00  0.000000D+00  0.000000D+00
     21  0.000000D+00  0.000000D+00  0.000000D+00  0.000000D+00  0.000000D+00
     22  0.000000D+00  0.000000D+00  0.000000D+00  0.000000D+00  0.000000D+00
     23  0.000000D+00  0.000000D+00  0.000000D+00  0.000000D+00  0.000000D+00
     24  0.000000D+00  0.000000D+00  0.000000D+00  0.000000D+00  0.000000D+00
     25  0.000000D+00  0.000000D+00  0.000000D+00  0.000000D+00  0.000000D+00
     26  0.000000D+00  0.000000D+00  0.000000D+00  0.000000D+00  0.000000D+00
     27  0.000000D+00  0.000000D+00  0.000000D+00  0.000000D+00  0.000000D+00
     28  0.000000D+00  0.000000D+00  0.000000D+00  0.000000D+00  0.000000D+00
     29  0.000000D+00  0.000000D+00  0.000000D+00  0.000000D+00  0.000000D+00
     30  0.000000D+00  0.000000D+00  0.000000D+00  0.000000D+00  0.000000D+00
     31  0.000000D+00  0.000000D+00  0.000000D+00  0.000000D+00  0.000000D+00
     32  0.000000D+00  0.000000D+00  0.000000D+00  0.000000D+00  0.000000D+00
     33  0.000000D+00  0.000000D+00  0.000000D+00  0.000000D+00  0.000000D+00
     34  0.000000D+00  0.000000D+00  0.000000D+00  0.000000D+00  0.000000D+00
     35  0.000000D+00  0.000000D+00  0.000000D+00  0.000000D+00  0.000000D+00
     36  0.000000D+00  0.000000D+00  0.000000D+00  0.000000D+00  0.000000D+00
     37  0.000000D+00  0.000000D+00  0.000000D+00  0.000000D+00  0.000000D+00
     38  0.000000D+00  0.000000D+00  0.000000D+00  0.000000D+00  0.000000D+00
     39  0.000000D+00  0.000000D+00  0.000000D+00  0.000000D+00  0.000000D+00
     40  0.000000D+00  0.000000D+00  0.000000D+00  0.000000D+00  0.000000D+00
     41  0.000000D+00  0.000000D+00  0.000000D+00  0.000000D+00  0.000000D+00
     42  0.000000D+00  0.000000D+00  0.000000D+00  0.000000D+00  0.000000D+00
     43  0.000000D+00  0.000000D+00  0.000000D+00  0.000000D+00  0.000000D+00
     44  0.000000D+00  0.000000D+00  0.000000D+00  0.000000D+00  0.000000D+00
     45  0.000000D+00  0.000000D+00  0.000000D+00  0.000000D+00  0.000000D+00
     46  0.000000D+00  0.000000D+00  0.000000D+00  0.000000D+00  0.000000D+00
     47  0.000000D+00  0.000000D+00  0.000000D+00  0.000000D+00  0.000000D+00
     48  0.000000D+00  0.000000D+00  0.000000D+00  0.000000D+00  0.000000D+00
     49  0.000000D+00  0.000000D+00  0.000000D+00  0.000000D+00  0.000000D+00
     50  0.000000D+00  0.000000D+00  0.000000D+00  0.000000D+00  0.000000D+00
     51  0.000000D+00  0.000000D+00  0.000000D+00  0.000000D+00  0.000000D+00
     52  0.000000D+00  0.000000D+00  0.000000D+00  0.000000D+00  0.000000D+00
     53  0.000000D+00  0.000000D+00  0.000000D+00  0.000000D+00  0.000000D+00
     54  0.000000D+00  0.000000D+00  0.000000D+00  0.000000D+00  0.000000D+00
     55  0.000000D+00  0.000000D+00  0.000000D+00  0.000000D+00  0.000000D+00
     56  0.000000D+00  0.000000D+00  0.000000D+00  0.000000D+00  0.000000D+00
     57  0.000000D+00  0.000000D+00  0.000000D+00  0.000000D+00  0.000000D+00
     58  0.000000D+00  0.000000D+00  0.000000D+00  0.000000D+00  0.000000D+00
     59  0.000000D+00  0.000000D+00  0.000000D+00  0.000000D+00  0.000000D+00
     60  0.000000D+00  0.000000D+00  0.000000D+00  0.000000D+00  0.000000D+00
     61  0.000000D+00  0.000000D+00  0.000000D+00  0.000000D+00  0.000000D+00
     62  0.000000D+00  0.000000D+00  0.000000D+00  0.000000D+00  0.000000D+00
     63  0.000000D+00  0.000000D+00  0.000000D+00  0.000000D+00  0.000000D+00
     64  0.000000D+00  0.000000D+00  0.000000D+00  0.000000D+00  0.000000D+00
     65  0.000000D+00  0.000000D+00  0.000000D+00  0.000000D+00  0.000000D+00
     66  0.140869D-03  0.350198D-02  0.125527D+00  0.329298D-01  0.203353D+00
     67  0.895906D-02  0.667052D-01  0.333013D+00  0.178438D+00  0.468522D+00
     68  0.148209D-01  0.104060D+00  0.438883D+00  0.253300D+00  0.652100D+00
     69  0.842941D-02  0.600793D-01  0.284309D+00  0.151931D+00  0.495447D+00
     70  0.542696D-02  0.388523D-01  0.190245D+00  0.993686D-01  0.348829D+00
     71  0.335785D-02  0.240980D-01  0.120264D+00  0.620193D-01  0.227180D+00
     72  0.000000D+00  0.000000D+00  0.000000D+00  0.000000D+00  0.000000D+00
     73  0.000000D+00  0.000000D+00  0.000000D+00  0.000000D+00  0.000000D+00
     74 -0.260388D-03 -0.817110D-02 -0.159493D+00 -0.670914D-01 -0.118102D+00
     75  0.000000D+00  0.000000D+00  0.000000D+00  0.000000D+00  0.000000D+00
     76  0.000000D+00  0.000000D+00  0.000000D+00  0.000000D+00  0.000000D+00
     77 -0.213922D-01 -0.149975D+00 -0.465146D+00 -0.341926D+00 -0.392575D+00
     78  0.000000D+00  0.000000D+00  0.000000D+00  0.000000D+00  0.000000D+00
     79  0.000000D+00  0.000000D+00  0.000000D+00  0.000000D+00  0.000000D+00
     80 -0.669613D-02 -0.473902D-01 -0.212276D+00 -0.117703D+00 -0.340281D+00
     81  0.000000D+00  0.000000D+00  0.000000D+00  0.000000D+00  0.000000D+00
     82  0.000000D+00  0.000000D+00  0.000000D+00  0.000000D+00  0.000000D+00
     83 -0.304960D-02 -0.217554D-01 -0.103608D+00 -0.551386D-01 -0.181780D+00
     84  0.391363D-02  0.468974D-01  0.168614D+00  0.151242D+00  0.628464D-01
     85  0.000000D+00  0.000000D+00  0.000000D+00  0.000000D+00  0.000000D+00
     86  0.000000D+00  0.000000D+00  0.000000D+00  0.000000D+00  0.000000D+00
     87  0.000000D+00  0.000000D+00  0.000000D+00  0.000000D+00  0.000000D+00
     88  0.000000D+00  0.000000D+00  0.000000D+00  0.000000D+00  0.000000D+00
     89  0.879866D-02  0.605406D-01  0.218727D+00  0.140054D+00  0.261748D+00
     90  0.000000D+00  0.000000D+00  0.000000D+00  0.000000D+00  0.000000D+00
     91  0.000000D+00  0.000000D+00  0.000000D+00  0.000000D+00  0.000000D+00
     92  0.000000D+00  0.000000D+00  0.000000D+00  0.000000D+00  0.000000D+00
     93  0.000000D+00  0.000000D+00  0.000000D+00  0.000000D+00  0.000000D+00
     94  0.307108D-02  0.215821D-01  0.914805D-01  0.526461D-01  0.134933D+00
     95  0.000000D+00  0.000000D+00  0.000000D+00  0.000000D+00  0.000000D+00
     96  0.000000D+00  0.000000D+00  0.000000D+00  0.000000D+00  0.000000D+00
     97  0.000000D+00  0.000000D+00  0.000000D+00  0.000000D+00  0.000000D+00
     98  0.000000D+00  0.000000D+00  0.000000D+00  0.000000D+00  0.000000D+00
     99  0.989392D-03  0.703326D-02  0.325750D-01  0.176645D-01  0.546911D-01
    100  0.000000D+00  0.000000D+00  0.000000D+00  0.000000D+00  0.000000D+00
    101  0.000000D+00  0.000000D+00  0.000000D+00  0.000000D+00  0.000000D+00
    102  0.000000D+00  0.000000D+00  0.000000D+00  0.000000D+00  0.000000D+00
    103  0.000000D+00  0.000000D+00  0.000000D+00  0.000000D+00  0.000000D+00
    104 -0.109102D-02 -0.761339D-02 -0.305281D-01 -0.182398D-01 -0.414450D-01
    105  0.000000D+00  0.000000D+00  0.000000D+00  0.000000D+00  0.000000D+00
    106  0.000000D+00  0.000000D+00  0.000000D+00  0.000000D+00  0.000000D+00
    107  0.000000D+00  0.000000D+00  0.000000D+00  0.000000D+00  0.000000D+00
    108  0.000000D+00  0.000000D+00  0.000000D+00  0.000000D+00  0.000000D+00
    109  0.000000D+00  0.000000D+00  0.000000D+00  0.000000D+00  0.000000D+00
    110  0.000000D+00  0.000000D+00  0.000000D+00  0.000000D+00  0.000000D+00
                6             7             8             9            10 
      6  0.100000D+01
      7  0.915452D+00  0.100000D+01
      8  0.715542D+00  0.915452D+00  0.100000D+01
      9  0.000000D+00  0.000000D+00  0.000000D+00  0.100000D+01
     10  0.000000D+00  0.000000D+00  0.000000D+00  0.000000D+00  0.100000D+01
     11  0.000000D+00  0.000000D+00  0.000000D+00  0.000000D+00  0.000000D+00
     12  0.000000D+00  0.000000D+00  0.000000D+00  0.155162D+00  0.000000D+00
     13  0.000000D+00  0.000000D+00  0.000000D+00  0.000000D+00  0.155162D+00
     14  0.000000D+00  0.000000D+00  0.000000D+00  0.000000D+00  0.000000D+00
     15  0.000000D+00  0.000000D+00  0.000000D+00  0.455947D+00  0.000000D+00
     16  0.000000D+00  0.000000D+00  0.000000D+00  0.000000D+00  0.455947D+00
     17  0.000000D+00  0.000000D+00  0.000000D+00  0.000000D+00  0.000000D+00
     18  0.000000D+00  0.000000D+00  0.000000D+00  0.566699D-01  0.000000D+00
     19  0.000000D+00  0.000000D+00  0.000000D+00  0.000000D+00  0.566699D-01
     20  0.000000D+00  0.000000D+00  0.000000D+00  0.000000D+00  0.000000D+00
     21  0.000000D+00  0.000000D+00  0.000000D+00  0.795452D-02  0.000000D+00
     22  0.000000D+00  0.000000D+00  0.000000D+00  0.000000D+00  0.795452D-02
     23  0.000000D+00  0.000000D+00  0.000000D+00  0.000000D+00  0.000000D+00
     24  0.000000D+00  0.000000D+00  0.000000D+00  0.337337D-02  0.000000D+00
     25  0.000000D+00  0.000000D+00  0.000000D+00  0.000000D+00  0.337337D-02
     26  0.000000D+00  0.000000D+00  0.000000D+00  0.000000D+00  0.000000D+00
     27  0.000000D+00  0.000000D+00  0.000000D+00  0.000000D+00  0.000000D+00
     28  0.000000D+00  0.000000D+00  0.000000D+00  0.000000D+00  0.000000D+00
     29  0.000000D+00  0.000000D+00  0.000000D+00  0.000000D+00  0.000000D+00
     30  0.000000D+00  0.000000D+00  0.000000D+00  0.000000D+00  0.000000D+00
     31  0.000000D+00  0.000000D+00  0.000000D+00  0.000000D+00  0.000000D+00
     32  0.000000D+00  0.000000D+00  0.000000D+00  0.000000D+00  0.000000D+00
     33  0.000000D+00  0.000000D+00  0.000000D+00  0.000000D+00  0.000000D+00
     34  0.000000D+00  0.000000D+00  0.000000D+00  0.000000D+00  0.000000D+00
     35  0.000000D+00  0.000000D+00  0.000000D+00  0.000000D+00  0.000000D+00
     36  0.000000D+00  0.000000D+00  0.000000D+00  0.000000D+00  0.000000D+00
     37  0.000000D+00  0.000000D+00  0.000000D+00  0.000000D+00  0.000000D+00
     38  0.000000D+00  0.000000D+00  0.000000D+00  0.000000D+00  0.000000D+00
     39  0.000000D+00  0.000000D+00  0.000000D+00  0.000000D+00  0.000000D+00
     40  0.000000D+00  0.000000D+00  0.000000D+00  0.000000D+00  0.000000D+00
     41  0.000000D+00  0.000000D+00  0.000000D+00  0.000000D+00  0.000000D+00
     42  0.000000D+00  0.000000D+00  0.000000D+00  0.000000D+00  0.000000D+00
     43  0.000000D+00  0.000000D+00  0.000000D+00  0.000000D+00  0.000000D+00
     44  0.000000D+00  0.000000D+00  0.000000D+00  0.000000D+00  0.000000D+00
     45  0.000000D+00  0.000000D+00  0.000000D+00  0.000000D+00  0.000000D+00
     46  0.000000D+00  0.000000D+00  0.000000D+00  0.000000D+00  0.000000D+00
     47  0.000000D+00  0.000000D+00  0.000000D+00  0.000000D+00  0.000000D+00
     48  0.000000D+00  0.000000D+00  0.000000D+00  0.000000D+00  0.000000D+00
     49  0.000000D+00  0.000000D+00  0.000000D+00  0.000000D+00  0.000000D+00
     50  0.000000D+00  0.000000D+00  0.000000D+00  0.000000D+00  0.000000D+00
     51  0.000000D+00  0.000000D+00  0.000000D+00  0.000000D+00  0.000000D+00
     52  0.000000D+00  0.000000D+00  0.000000D+00  0.000000D+00  0.000000D+00
     53  0.000000D+00  0.000000D+00  0.000000D+00  0.000000D+00  0.000000D+00
     54  0.000000D+00  0.000000D+00  0.000000D+00  0.000000D+00  0.000000D+00
     55  0.000000D+00  0.000000D+00  0.000000D+00  0.000000D+00  0.000000D+00
     56  0.000000D+00  0.000000D+00  0.000000D+00  0.000000D+00  0.000000D+00
     57  0.000000D+00  0.000000D+00  0.000000D+00  0.000000D+00  0.000000D+00
     58  0.000000D+00  0.000000D+00  0.000000D+00  0.000000D+00  0.000000D+00
     59  0.000000D+00  0.000000D+00  0.000000D+00  0.000000D+00  0.000000D+00
     60  0.000000D+00  0.000000D+00  0.000000D+00  0.000000D+00  0.000000D+00
     61  0.000000D+00  0.000000D+00  0.000000D+00  0.000000D+00  0.000000D+00
     62  0.000000D+00  0.000000D+00  0.000000D+00  0.000000D+00  0.000000D+00
     63  0.000000D+00  0.000000D+00  0.000000D+00  0.000000D+00  0.000000D+00
     64  0.000000D+00  0.000000D+00  0.000000D+00  0.000000D+00  0.000000D+00
     65  0.000000D+00  0.000000D+00  0.000000D+00  0.000000D+00  0.000000D+00
     66  0.123400D+00  0.804435D-01  0.501164D-01  0.000000D+00  0.000000D+00
     67  0.323676D+00  0.218334D+00  0.138665D+00  0.000000D+00  0.000000D+00
     68  0.629697D+00  0.463712D+00  0.310435D+00  0.000000D+00  0.000000D+00
     69  0.924034D+00  0.868482D+00  0.693282D+00  0.000000D+00  0.000000D+00
     70  0.868482D+00  0.961267D+00  0.891658D+00  0.000000D+00  0.000000D+00
     71  0.693282D+00  0.891658D+00  0.980442D+00  0.000000D+00  0.000000D+00
     72  0.000000D+00  0.000000D+00  0.000000D+00  0.103358D-02  0.000000D+00
     73  0.000000D+00  0.000000D+00  0.000000D+00  0.000000D+00  0.103358D-02
     74 -0.122992D-01 -0.403845D-02 -0.126253D-02  0.000000D+00  0.000000D+00
     75  0.000000D+00  0.000000D+00  0.000000D+00  0.215594D-01  0.000000D+00
     76  0.000000D+00  0.000000D+00  0.000000D+00  0.000000D+00  0.215594D-01
     77 -0.552627D-01 -0.190951D-01 -0.613671D-02  0.000000D+00  0.000000D+00
     78  0.000000D+00  0.000000D+00  0.000000D+00  0.679925D-02  0.000000D+00
     79  0.000000D+00  0.000000D+00  0.000000D+00  0.000000D+00  0.679925D-02
     80 -0.367311D+00 -0.230152D+00 -0.110234D+00  0.000000D+00  0.000000D+00
     81  0.000000D+00  0.000000D+00  0.000000D+00  0.311796D-02  0.000000D+00
     82  0.000000D+00  0.000000D+00  0.000000D+00  0.000000D+00  0.311796D-02
     83 -0.325484D+00 -0.270193D+00 -0.167085D+00  0.000000D+00  0.000000D+00
     84  0.120962D-02  0.202299D-03  0.319250D-04  0.000000D+00  0.000000D+00
     85  0.000000D+00  0.000000D+00  0.000000D+00 -0.110799D-01  0.000000D+00
     86  0.000000D+00  0.000000D+00  0.000000D+00  0.000000D+00 -0.110799D-01
     87  0.000000D+00  0.000000D+00  0.000000D+00  0.000000D+00  0.000000D+00
     88  0.000000D+00  0.000000D+00  0.000000D+00  0.000000D+00  0.000000D+00
     89  0.668135D-01  0.196095D-01  0.433495D-02  0.000000D+00  0.000000D+00
     90  0.000000D+00  0.000000D+00  0.000000D+00 -0.151023D-01  0.000000D+00
     91  0.000000D+00  0.000000D+00  0.000000D+00  0.000000D+00 -0.151023D-01
     92  0.000000D+00  0.000000D+00  0.000000D+00  0.000000D+00  0.000000D+00
     93  0.000000D+00  0.000000D+00  0.000000D+00  0.000000D+00  0.000000D+00
     94  0.842982D-01  0.352135D-01  0.101195D-01  0.000000D+00  0.000000D+00
     95  0.000000D+00  0.000000D+00  0.000000D+00 -0.536838D-02  0.000000D+00
     96  0.000000D+00  0.000000D+00  0.000000D+00  0.000000D+00 -0.536838D-02
     97  0.000000D+00  0.000000D+00  0.000000D+00  0.000000D+00  0.000000D+00
     98  0.000000D+00  0.000000D+00  0.000000D+00  0.000000D+00  0.000000D+00
     99  0.704269D-01  0.438475D-01  0.180766D-01  0.000000D+00  0.000000D+00
    100  0.000000D+00  0.000000D+00  0.000000D+00 -0.174675D-02  0.000000D+00
    101  0.000000D+00  0.000000D+00  0.000000D+00  0.000000D+00 -0.174675D-02
    102  0.000000D+00  0.000000D+00  0.000000D+00  0.000000D+00  0.000000D+00
    103  0.000000D+00  0.000000D+00  0.000000D+00  0.000000D+00  0.000000D+00
    104 -0.149858D-01 -0.417329D-02 -0.719583D-03  0.000000D+00  0.000000D+00
    105  0.000000D+00  0.000000D+00  0.000000D+00  0.268076D-02  0.000000D+00
    106  0.000000D+00  0.000000D+00  0.000000D+00  0.000000D+00  0.268076D-02
    107  0.000000D+00  0.000000D+00  0.000000D+00  0.000000D+00  0.000000D+00
    108  0.000000D+00  0.000000D+00  0.000000D+00  0.000000D+00  0.000000D+00
    109  0.000000D+00  0.000000D+00  0.000000D+00  0.000000D+00  0.000000D+00
    110  0.000000D+00  0.000000D+00  0.000000D+00  0.000000D+00  0.000000D+00
               11            12            13            14            15 
     11  0.100000D+01
     12  0.000000D+00  0.100000D+01
     13  0.000000D+00  0.000000D+00  0.100000D+01
     14  0.155162D+00  0.000000D+00  0.000000D+00  0.100000D+01
     15  0.000000D+00  0.739204D+00  0.000000D+00  0.000000D+00  0.100000D+01
     16  0.000000D+00  0.000000D+00  0.739204D+00  0.000000D+00  0.000000D+00
     17  0.455947D+00  0.000000D+00  0.000000D+00  0.739204D+00  0.000000D+00
     18  0.000000D+00  0.708707D+00  0.000000D+00  0.000000D+00  0.318794D+00
     19  0.000000D+00  0.000000D+00  0.708707D+00  0.000000D+00  0.000000D+00
     20  0.566699D-01  0.000000D+00  0.000000D+00  0.708707D+00  0.000000D+00
     21  0.000000D+00  0.164471D+00  0.000000D+00  0.000000D+00  0.529907D-01
     22  0.000000D+00  0.000000D+00  0.164471D+00  0.000000D+00  0.000000D+00
     23  0.795452D-02  0.000000D+00  0.000000D+00  0.164471D+00  0.000000D+00
     24  0.000000D+00  0.749010D-01  0.000000D+00  0.000000D+00  0.229752D-01
     25  0.000000D+00  0.000000D+00  0.749010D-01  0.000000D+00  0.000000D+00
     26  0.337337D-02  0.000000D+00  0.000000D+00  0.749010D-01  0.000000D+00
     27  0.000000D+00  0.000000D+00  0.000000D+00  0.000000D+00  0.000000D+00
     28  0.000000D+00  0.000000D+00  0.000000D+00  0.000000D+00  0.000000D+00
     29  0.000000D+00  0.000000D+00  0.000000D+00  0.000000D+00  0.000000D+00
     30  0.000000D+00  0.000000D+00  0.000000D+00  0.000000D+00  0.000000D+00
     31  0.000000D+00  0.000000D+00  0.000000D+00  0.000000D+00  0.000000D+00
     32  0.000000D+00  0.000000D+00  0.000000D+00  0.000000D+00  0.000000D+00
     33  0.000000D+00  0.000000D+00  0.000000D+00  0.000000D+00  0.000000D+00
     34  0.000000D+00  0.000000D+00  0.000000D+00  0.000000D+00  0.000000D+00
     35  0.000000D+00  0.000000D+00  0.000000D+00  0.000000D+00  0.000000D+00
     36  0.000000D+00  0.000000D+00  0.000000D+00  0.000000D+00  0.000000D+00
     37  0.000000D+00  0.000000D+00  0.000000D+00  0.000000D+00  0.000000D+00
     38  0.000000D+00  0.000000D+00  0.000000D+00  0.000000D+00  0.000000D+00
     39  0.000000D+00  0.000000D+00  0.000000D+00  0.000000D+00  0.000000D+00
     40  0.000000D+00  0.000000D+00  0.000000D+00  0.000000D+00  0.000000D+00
     41  0.000000D+00  0.000000D+00  0.000000D+00  0.000000D+00  0.000000D+00
     42  0.000000D+00  0.000000D+00  0.000000D+00  0.000000D+00  0.000000D+00
     43  0.000000D+00  0.000000D+00  0.000000D+00  0.000000D+00  0.000000D+00
     44  0.000000D+00  0.000000D+00  0.000000D+00  0.000000D+00  0.000000D+00
     45  0.000000D+00  0.000000D+00  0.000000D+00  0.000000D+00  0.000000D+00
     46  0.000000D+00  0.000000D+00  0.000000D+00  0.000000D+00  0.000000D+00
     47  0.000000D+00  0.000000D+00  0.000000D+00  0.000000D+00  0.000000D+00
     48  0.000000D+00  0.000000D+00  0.000000D+00  0.000000D+00  0.000000D+00
     49  0.000000D+00  0.000000D+00  0.000000D+00  0.000000D+00  0.000000D+00
     50  0.000000D+00  0.000000D+00  0.000000D+00  0.000000D+00  0.000000D+00
     51  0.000000D+00  0.000000D+00  0.000000D+00  0.000000D+00  0.000000D+00
     52  0.000000D+00  0.000000D+00  0.000000D+00  0.000000D+00  0.000000D+00
     53  0.000000D+00  0.000000D+00  0.000000D+00  0.000000D+00  0.000000D+00
     54  0.000000D+00  0.000000D+00  0.000000D+00  0.000000D+00  0.000000D+00
     55  0.000000D+00  0.000000D+00  0.000000D+00  0.000000D+00  0.000000D+00
     56  0.000000D+00  0.000000D+00  0.000000D+00  0.000000D+00  0.000000D+00
     57  0.000000D+00  0.000000D+00  0.000000D+00  0.000000D+00  0.000000D+00
     58  0.000000D+00  0.000000D+00  0.000000D+00  0.000000D+00  0.000000D+00
     59  0.000000D+00  0.000000D+00  0.000000D+00  0.000000D+00  0.000000D+00
     60  0.000000D+00  0.000000D+00  0.000000D+00  0.000000D+00  0.000000D+00
     61  0.000000D+00  0.000000D+00  0.000000D+00  0.000000D+00  0.000000D+00
     62  0.000000D+00  0.000000D+00  0.000000D+00  0.000000D+00  0.000000D+00
     63  0.000000D+00  0.000000D+00  0.000000D+00  0.000000D+00  0.000000D+00
     64  0.000000D+00  0.000000D+00  0.000000D+00  0.000000D+00  0.000000D+00
     65  0.000000D+00  0.000000D+00  0.000000D+00  0.000000D+00  0.000000D+00
     66  0.475334D-02  0.000000D+00  0.000000D+00  0.291888D+00  0.000000D+00
     67  0.351686D-01  0.000000D+00  0.000000D+00  0.476244D+00  0.000000D+00
     68  0.184391D-01  0.000000D+00  0.000000D+00  0.292427D+00  0.000000D+00
     69  0.270276D-02  0.000000D+00  0.000000D+00  0.563801D-01  0.000000D+00
     70  0.876398D-03  0.000000D+00  0.000000D+00  0.195038D-01  0.000000D+00
     71  0.272171D-03  0.000000D+00  0.000000D+00  0.627204D-02  0.000000D+00
     72  0.000000D+00  0.955242D-01  0.000000D+00  0.000000D+00  0.250770D-01
     73  0.000000D+00  0.000000D+00  0.955242D-01  0.000000D+00  0.000000D+00
     74 -0.115711D-01  0.000000D+00  0.000000D+00 -0.258512D+00  0.000000D+00
     75  0.000000D+00  0.305432D+00  0.000000D+00  0.000000D+00  0.132894D+00
     76  0.000000D+00  0.000000D+00  0.305432D+00  0.000000D+00  0.000000D+00
     77 -0.720443D-01  0.000000D+00  0.000000D+00 -0.419329D+00  0.000000D+00
     78  0.000000D+00  0.141834D+00  0.000000D+00  0.000000D+00  0.454206D-01
     79  0.000000D+00  0.000000D+00  0.141834D+00  0.000000D+00  0.000000D+00
     80  0.466528D-02  0.000000D+00  0.000000D+00  0.998297D-01  0.000000D+00
     81  0.000000D+00  0.693888D-01  0.000000D+00  0.000000D+00  0.212507D-01
     82  0.000000D+00  0.000000D+00  0.693888D-01  0.000000D+00  0.000000D+00
     83  0.262699D-02  0.000000D+00  0.000000D+00  0.587804D-01  0.000000D+00
     84  0.517031D-01  0.000000D+00  0.000000D+00  0.148140D+00  0.000000D+00
     85  0.000000D+00 -0.176270D+00  0.000000D+00  0.000000D+00 -0.101596D+00
     86  0.000000D+00  0.000000D+00 -0.176270D+00  0.000000D+00  0.000000D+00
     87  0.000000D+00  0.000000D+00  0.000000D+00  0.000000D+00  0.000000D+00
     88  0.000000D+00  0.000000D+00  0.000000D+00  0.000000D+00  0.000000D+00
     89 -0.120024D-01  0.000000D+00  0.000000D+00 -0.209879D+00  0.000000D+00
     90  0.000000D+00 -0.251962D+00  0.000000D+00  0.000000D+00 -0.940232D-01
     91  0.000000D+00  0.000000D+00 -0.251962D+00  0.000000D+00  0.000000D+00
     92  0.000000D+00  0.000000D+00  0.000000D+00  0.000000D+00  0.000000D+00
     93  0.000000D+00  0.000000D+00  0.000000D+00  0.000000D+00  0.000000D+00
     94 -0.522609D-02  0.000000D+00  0.000000D+00 -0.103949D+00  0.000000D+00
     95  0.000000D+00 -0.105669D+00  0.000000D+00  0.000000D+00 -0.352277D-01
     96  0.000000D+00  0.000000D+00 -0.105669D+00  0.000000D+00  0.000000D+00
     97  0.000000D+00  0.000000D+00  0.000000D+00  0.000000D+00  0.000000D+00
     98  0.000000D+00  0.000000D+00  0.000000D+00  0.000000D+00  0.000000D+00
     99 -0.185816D-02  0.000000D+00  0.000000D+00 -0.402487D-01  0.000000D+00
    100  0.000000D+00 -0.377414D-01  0.000000D+00  0.000000D+00 -0.117985D-01
    101  0.000000D+00  0.000000D+00 -0.377414D-01  0.000000D+00  0.000000D+00
    102  0.000000D+00  0.000000D+00  0.000000D+00  0.000000D+00  0.000000D+00
    103  0.000000D+00  0.000000D+00  0.000000D+00  0.000000D+00  0.000000D+00
    104  0.293976D-02  0.000000D+00  0.000000D+00  0.549606D-01  0.000000D+00
    105  0.000000D+00  0.497902D-01  0.000000D+00  0.000000D+00  0.172800D-01
    106  0.000000D+00  0.000000D+00  0.497902D-01  0.000000D+00  0.000000D+00
    107  0.000000D+00  0.000000D+00  0.000000D+00  0.000000D+00  0.000000D+00
    108  0.000000D+00  0.000000D+00  0.000000D+00  0.000000D+00  0.000000D+00
    109  0.000000D+00  0.000000D+00  0.000000D+00  0.000000D+00  0.000000D+00
    110  0.000000D+00  0.000000D+00  0.000000D+00  0.000000D+00  0.000000D+00
               16            17            18            19            20 
     16  0.100000D+01
     17  0.000000D+00  0.100000D+01
     18  0.000000D+00  0.000000D+00  0.100000D+01
     19  0.318794D+00  0.000000D+00  0.000000D+00  0.100000D+01
     20  0.000000D+00  0.318794D+00  0.000000D+00  0.000000D+00  0.100000D+01
     21  0.000000D+00  0.000000D+00  0.473151D+00  0.000000D+00  0.000000D+00
     22  0.529907D-01  0.000000D+00  0.000000D+00  0.473151D+00  0.000000D+00
     23  0.000000D+00  0.529907D-01  0.000000D+00  0.000000D+00  0.473151D+00
     24  0.000000D+00  0.000000D+00  0.246521D+00  0.000000D+00  0.000000D+00
     25  0.229752D-01  0.000000D+00  0.000000D+00  0.246521D+00  0.000000D+00
     26  0.000000D+00  0.229752D-01  0.000000D+00  0.000000D+00  0.246521D+00
     27  0.000000D+00  0.000000D+00  0.000000D+00  0.000000D+00  0.000000D+00
     28  0.000000D+00  0.000000D+00  0.000000D+00  0.000000D+00  0.000000D+00
     29  0.000000D+00  0.000000D+00  0.000000D+00  0.000000D+00  0.000000D+00
     30  0.000000D+00  0.000000D+00  0.000000D+00  0.000000D+00  0.000000D+00
     31  0.000000D+00  0.000000D+00  0.000000D+00  0.000000D+00  0.000000D+00
     32  0.000000D+00  0.000000D+00  0.000000D+00  0.000000D+00  0.000000D+00
     33  0.000000D+00  0.000000D+00  0.000000D+00  0.000000D+00  0.000000D+00
     34  0.000000D+00  0.000000D+00  0.000000D+00  0.000000D+00  0.000000D+00
     35  0.000000D+00  0.000000D+00  0.000000D+00  0.000000D+00  0.000000D+00
     36  0.000000D+00  0.000000D+00  0.000000D+00  0.000000D+00  0.000000D+00
     37  0.000000D+00  0.000000D+00  0.000000D+00  0.000000D+00  0.000000D+00
     38  0.000000D+00  0.000000D+00  0.000000D+00  0.000000D+00  0.000000D+00
     39  0.000000D+00  0.000000D+00  0.000000D+00  0.000000D+00  0.000000D+00
     40  0.000000D+00  0.000000D+00  0.000000D+00  0.000000D+00  0.000000D+00
     41  0.000000D+00  0.000000D+00  0.000000D+00  0.000000D+00  0.000000D+00
     42  0.000000D+00  0.000000D+00  0.000000D+00  0.000000D+00  0.000000D+00
     43  0.000000D+00  0.000000D+00  0.000000D+00  0.000000D+00  0.000000D+00
     44  0.000000D+00  0.000000D+00  0.000000D+00  0.000000D+00  0.000000D+00
     45  0.000000D+00  0.000000D+00  0.000000D+00  0.000000D+00  0.000000D+00
     46  0.000000D+00  0.000000D+00  0.000000D+00  0.000000D+00  0.000000D+00
     47  0.000000D+00  0.000000D+00  0.000000D+00  0.000000D+00  0.000000D+00
     48  0.000000D+00  0.000000D+00  0.000000D+00  0.000000D+00  0.000000D+00
     49  0.000000D+00  0.000000D+00  0.000000D+00  0.000000D+00  0.000000D+00
     50  0.000000D+00  0.000000D+00  0.000000D+00  0.000000D+00  0.000000D+00
     51  0.000000D+00  0.000000D+00  0.000000D+00  0.000000D+00  0.000000D+00
     52  0.000000D+00  0.000000D+00  0.000000D+00  0.000000D+00  0.000000D+00
     53  0.000000D+00  0.000000D+00  0.000000D+00  0.000000D+00  0.000000D+00
     54  0.000000D+00  0.000000D+00  0.000000D+00  0.000000D+00  0.000000D+00
     55  0.000000D+00  0.000000D+00  0.000000D+00  0.000000D+00  0.000000D+00
     56  0.000000D+00  0.000000D+00  0.000000D+00  0.000000D+00  0.000000D+00
     57  0.000000D+00  0.000000D+00  0.000000D+00  0.000000D+00  0.000000D+00
     58  0.000000D+00  0.000000D+00  0.000000D+00  0.000000D+00  0.000000D+00
     59  0.000000D+00  0.000000D+00  0.000000D+00  0.000000D+00  0.000000D+00
     60  0.000000D+00  0.000000D+00  0.000000D+00  0.000000D+00  0.000000D+00
     61  0.000000D+00  0.000000D+00  0.000000D+00  0.000000D+00  0.000000D+00
     62  0.000000D+00  0.000000D+00  0.000000D+00  0.000000D+00  0.000000D+00
     63  0.000000D+00  0.000000D+00  0.000000D+00  0.000000D+00  0.000000D+00
     64  0.000000D+00  0.000000D+00  0.000000D+00  0.000000D+00  0.000000D+00
     65  0.000000D+00  0.000000D+00  0.000000D+00  0.000000D+00  0.000000D+00
     66  0.000000D+00  0.821320D-01  0.000000D+00  0.000000D+00  0.339260D+00
     67  0.000000D+00  0.209402D+00  0.000000D+00  0.000000D+00  0.619314D+00
     68  0.000000D+00  0.112748D+00  0.000000D+00  0.000000D+00  0.549019D+00
     69  0.000000D+00  0.180550D-01  0.000000D+00  0.000000D+00  0.164818D+00
     70  0.000000D+00  0.597314D-02  0.000000D+00  0.000000D+00  0.644830D-01
     71  0.000000D+00  0.187489D-02  0.000000D+00  0.000000D+00  0.222474D-01
     72  0.000000D+00  0.000000D+00  0.110867D+00  0.000000D+00  0.000000D+00
     73  0.250770D-01  0.000000D+00  0.000000D+00  0.110867D+00  0.000000D+00
     74  0.000000D+00 -0.158186D+00  0.000000D+00  0.000000D+00 -0.521200D-01
     75  0.000000D+00  0.000000D+00  0.383931D+00  0.000000D+00  0.000000D+00
     76  0.132894D+00  0.000000D+00  0.000000D+00  0.383931D+00  0.000000D+00
     77  0.000000D+00 -0.328477D+00  0.000000D+00  0.000000D+00 -0.778431D-01
     78  0.000000D+00  0.000000D+00  0.414629D+00  0.000000D+00  0.000000D+00
     79  0.454206D-01  0.000000D+00  0.000000D+00  0.414629D+00  0.000000D+00
     80  0.000000D+00  0.314173D-01  0.000000D+00  0.000000D+00  0.305140D+00
     81  0.000000D+00  0.000000D+00  0.229411D+00  0.000000D+00  0.000000D+00
     82  0.212507D-01  0.000000D+00  0.000000D+00  0.229411D+00  0.000000D+00
     83  0.000000D+00  0.179343D-01  0.000000D+00  0.000000D+00  0.196409D+00
     84  0.000000D+00  0.258931D+00  0.000000D+00  0.000000D+00 -0.278062D-01
     85  0.000000D+00  0.000000D+00 -0.844992D-01  0.000000D+00  0.000000D+00
     86 -0.101596D+00  0.000000D+00  0.000000D+00 -0.844992D-01  0.000000D+00
     87  0.000000D+00  0.000000D+00  0.000000D+00  0.000000D+00  0.000000D+00
     88  0.000000D+00  0.000000D+00  0.000000D+00  0.000000D+00  0.000000D+00
     89  0.000000D+00 -0.758952D-01  0.000000D+00  0.000000D+00 -0.441642D+00
     90  0.000000D+00  0.000000D+00 -0.494648D+00  0.000000D+00  0.000000D+00
     91 -0.940232D-01  0.000000D+00  0.000000D+00 -0.494648D+00  0.000000D+00
     92  0.000000D+00  0.000000D+00  0.000000D+00  0.000000D+00  0.000000D+00
     93  0.000000D+00  0.000000D+00  0.000000D+00  0.000000D+00  0.000000D+00
     94  0.000000D+00 -0.344069D-01  0.000000D+00  0.000000D+00 -0.276055D+00
     95  0.000000D+00  0.000000D+00 -0.275438D+00  0.000000D+00  0.000000D+00
     96 -0.352277D-01  0.000000D+00  0.000000D+00 -0.275438D+00  0.000000D+00
     97  0.000000D+00  0.000000D+00  0.000000D+00  0.000000D+00  0.000000D+00
     98  0.000000D+00  0.000000D+00  0.000000D+00  0.000000D+00  0.000000D+00
     99  0.000000D+00 -0.125607D-01  0.000000D+00  0.000000D+00 -0.125826D+00
    100  0.000000D+00  0.000000D+00 -0.117414D+00  0.000000D+00  0.000000D+00
    101 -0.117985D-01  0.000000D+00  0.000000D+00 -0.117414D+00  0.000000D+00
    102  0.000000D+00  0.000000D+00  0.000000D+00  0.000000D+00  0.000000D+00
    103  0.000000D+00  0.000000D+00  0.000000D+00  0.000000D+00  0.000000D+00
    104  0.000000D+00  0.189887D-01  0.000000D+00  0.000000D+00  0.129255D+00
    105  0.000000D+00  0.000000D+00  0.115722D+00  0.000000D+00  0.000000D+00
    106  0.172800D-01  0.000000D+00  0.000000D+00  0.115722D+00  0.000000D+00
    107  0.000000D+00  0.000000D+00  0.000000D+00  0.000000D+00  0.000000D+00
    108  0.000000D+00  0.000000D+00  0.000000D+00  0.000000D+00  0.000000D+00
    109  0.000000D+00  0.000000D+00  0.000000D+00  0.000000D+00  0.000000D+00
    110  0.000000D+00  0.000000D+00  0.000000D+00  0.000000D+00  0.000000D+00
               21            22            23            24            25 
     21  0.100000D+01
     22  0.000000D+00  0.100000D+01
     23  0.000000D+00  0.000000D+00  0.100000D+01
     24  0.863096D+00  0.000000D+00  0.000000D+00  0.100000D+01
     25  0.000000D+00  0.863096D+00  0.000000D+00  0.000000D+00  0.100000D+01
     26  0.000000D+00  0.000000D+00  0.863096D+00  0.000000D+00  0.000000D+00
     27  0.000000D+00  0.000000D+00  0.000000D+00  0.000000D+00  0.000000D+00
     28  0.000000D+00  0.000000D+00  0.000000D+00  0.000000D+00  0.000000D+00
     29  0.000000D+00  0.000000D+00  0.000000D+00  0.000000D+00  0.000000D+00
     30  0.000000D+00  0.000000D+00  0.000000D+00  0.000000D+00  0.000000D+00
     31  0.000000D+00  0.000000D+00  0.000000D+00  0.000000D+00  0.000000D+00
     32  0.000000D+00  0.000000D+00  0.000000D+00  0.000000D+00  0.000000D+00
     33  0.000000D+00  0.000000D+00  0.000000D+00  0.000000D+00  0.000000D+00
     34  0.000000D+00  0.000000D+00  0.000000D+00  0.000000D+00  0.000000D+00
     35  0.000000D+00  0.000000D+00  0.000000D+00  0.000000D+00  0.000000D+00
     36  0.000000D+00  0.000000D+00  0.000000D+00  0.000000D+00  0.000000D+00
     37  0.000000D+00  0.000000D+00  0.000000D+00  0.000000D+00  0.000000D+00
     38  0.000000D+00  0.000000D+00  0.000000D+00  0.000000D+00  0.000000D+00
     39  0.000000D+00  0.000000D+00  0.000000D+00  0.000000D+00  0.000000D+00
     40  0.000000D+00  0.000000D+00  0.000000D+00  0.000000D+00  0.000000D+00
     41  0.000000D+00  0.000000D+00  0.000000D+00  0.000000D+00  0.000000D+00
     42  0.000000D+00  0.000000D+00  0.000000D+00  0.000000D+00  0.000000D+00
     43  0.000000D+00  0.000000D+00  0.000000D+00  0.000000D+00  0.000000D+00
     44  0.000000D+00  0.000000D+00  0.000000D+00  0.000000D+00  0.000000D+00
     45  0.000000D+00  0.000000D+00  0.000000D+00  0.000000D+00  0.000000D+00
     46  0.000000D+00  0.000000D+00  0.000000D+00  0.000000D+00  0.000000D+00
     47  0.000000D+00  0.000000D+00  0.000000D+00  0.000000D+00  0.000000D+00
     48  0.000000D+00  0.000000D+00  0.000000D+00  0.000000D+00  0.000000D+00
     49  0.000000D+00  0.000000D+00  0.000000D+00  0.000000D+00  0.000000D+00
     50  0.000000D+00  0.000000D+00  0.000000D+00  0.000000D+00  0.000000D+00
     51  0.000000D+00  0.000000D+00  0.000000D+00  0.000000D+00  0.000000D+00
     52  0.000000D+00  0.000000D+00  0.000000D+00  0.000000D+00  0.000000D+00
     53  0.000000D+00  0.000000D+00  0.000000D+00  0.000000D+00  0.000000D+00
     54  0.000000D+00  0.000000D+00  0.000000D+00  0.000000D+00  0.000000D+00
     55  0.000000D+00  0.000000D+00  0.000000D+00  0.000000D+00  0.000000D+00
     56  0.000000D+00  0.000000D+00  0.000000D+00  0.000000D+00  0.000000D+00
     57  0.000000D+00  0.000000D+00  0.000000D+00  0.000000D+00  0.000000D+00
     58  0.000000D+00  0.000000D+00  0.000000D+00  0.000000D+00  0.000000D+00
     59  0.000000D+00  0.000000D+00  0.000000D+00  0.000000D+00  0.000000D+00
     60  0.000000D+00  0.000000D+00  0.000000D+00  0.000000D+00  0.000000D+00
     61  0.000000D+00  0.000000D+00  0.000000D+00  0.000000D+00  0.000000D+00
     62  0.000000D+00  0.000000D+00  0.000000D+00  0.000000D+00  0.000000D+00
     63  0.000000D+00  0.000000D+00  0.000000D+00  0.000000D+00  0.000000D+00
     64  0.000000D+00  0.000000D+00  0.000000D+00  0.000000D+00  0.000000D+00
     65  0.000000D+00  0.000000D+00  0.000000D+00  0.000000D+00  0.000000D+00
     66  0.000000D+00  0.000000D+00  0.961031D-01  0.000000D+00  0.000000D+00
     67  0.000000D+00  0.000000D+00  0.238581D+00  0.000000D+00  0.000000D+00
     68  0.000000D+00  0.000000D+00  0.400729D+00  0.000000D+00  0.000000D+00
     69  0.000000D+00  0.000000D+00  0.367311D+00  0.000000D+00  0.000000D+00
     70  0.000000D+00  0.000000D+00  0.230152D+00  0.000000D+00  0.000000D+00
     71  0.000000D+00  0.000000D+00  0.110234D+00  0.000000D+00  0.000000D+00
     72  0.309409D-01  0.000000D+00  0.000000D+00  0.143676D-01  0.000000D+00
     73  0.000000D+00  0.309409D-01  0.000000D+00  0.000000D+00  0.143676D-01
     74  0.000000D+00  0.000000D+00  0.213375D-01  0.000000D+00  0.000000D+00
     75  0.139023D+00  0.000000D+00  0.000000D+00  0.679347D-01  0.000000D+00
     76  0.000000D+00  0.139023D+00  0.000000D+00  0.000000D+00  0.679347D-01
     77  0.000000D+00  0.000000D+00  0.978077D-01  0.000000D+00  0.000000D+00
     78  0.924034D+00  0.000000D+00  0.000000D+00  0.818813D+00  0.000000D+00
     79  0.000000D+00  0.924034D+00  0.000000D+00  0.000000D+00  0.818813D+00
     80  0.000000D+00  0.000000D+00  0.778025D+00  0.000000D+00  0.000000D+00
     81  0.818813D+00  0.000000D+00  0.000000D+00  0.961267D+00  0.000000D+00
     82  0.000000D+00  0.818813D+00  0.000000D+00  0.000000D+00  0.961267D+00
     83  0.000000D+00  0.000000D+00  0.732558D+00  0.000000D+00  0.000000D+00
     84  0.000000D+00  0.000000D+00 -0.514708D-02  0.000000D+00  0.000000D+00
     85 -0.527063D-02  0.000000D+00  0.000000D+00 -0.124659D-02  0.000000D+00
     86  0.000000D+00 -0.527063D-02  0.000000D+00  0.000000D+00 -0.124659D-02
     87  0.000000D+00  0.000000D+00  0.000000D+00  0.000000D+00  0.000000D+00
     88  0.000000D+00  0.000000D+00  0.000000D+00  0.000000D+00  0.000000D+00
     89  0.000000D+00  0.000000D+00 -0.300750D+00  0.000000D+00  0.000000D+00
     90 -0.291125D+00  0.000000D+00  0.000000D+00 -0.120836D+00  0.000000D+00
     91  0.000000D+00 -0.291125D+00  0.000000D+00  0.000000D+00 -0.120836D+00
     92  0.000000D+00  0.000000D+00  0.000000D+00  0.000000D+00  0.000000D+00
     93  0.000000D+00  0.000000D+00  0.000000D+00  0.000000D+00  0.000000D+00
     94  0.000000D+00  0.000000D+00 -0.390625D+00  0.000000D+00  0.000000D+00
     95 -0.367311D+00  0.000000D+00  0.000000D+00 -0.216990D+00  0.000000D+00
     96  0.000000D+00 -0.367311D+00  0.000000D+00  0.000000D+00 -0.216990D+00
     97  0.000000D+00  0.000000D+00  0.000000D+00  0.000000D+00  0.000000D+00
     98  0.000000D+00  0.000000D+00  0.000000D+00  0.000000D+00  0.000000D+00
     99  0.000000D+00  0.000000D+00 -0.335679D+00  0.000000D+00  0.000000D+00
    100 -0.306870D+00  0.000000D+00  0.000000D+00 -0.270193D+00  0.000000D+00
    101  0.000000D+00 -0.306870D+00  0.000000D+00  0.000000D+00 -0.270193D+00
    102  0.000000D+00  0.000000D+00  0.000000D+00  0.000000D+00  0.000000D+00
    103  0.000000D+00  0.000000D+00  0.000000D+00  0.000000D+00  0.000000D+00
    104  0.000000D+00  0.000000D+00  0.107141D+00  0.000000D+00  0.000000D+00
    105  0.923441D-01  0.000000D+00  0.000000D+00  0.363683D-01  0.000000D+00
    106  0.000000D+00  0.923441D-01  0.000000D+00  0.000000D+00  0.363683D-01
    107  0.000000D+00  0.000000D+00  0.000000D+00  0.000000D+00  0.000000D+00
    108  0.000000D+00  0.000000D+00  0.000000D+00  0.000000D+00  0.000000D+00
    109  0.000000D+00  0.000000D+00  0.000000D+00  0.000000D+00  0.000000D+00
    110  0.000000D+00  0.000000D+00  0.000000D+00  0.000000D+00  0.000000D+00
               26            27            28            29            30 
     26  0.100000D+01
     27  0.000000D+00  0.100000D+01
     28  0.000000D+00  0.000000D+00  0.100000D+01
     29  0.000000D+00  0.000000D+00  0.000000D+00  0.100000D+01
     30  0.000000D+00  0.000000D+00  0.000000D+00  0.000000D+00  0.100000D+01
     31  0.000000D+00  0.000000D+00  0.000000D+00  0.000000D+00  0.000000D+00
     32  0.000000D+00  0.597325D+00  0.000000D+00  0.000000D+00  0.000000D+00
     33  0.000000D+00  0.000000D+00  0.597325D+00  0.000000D+00  0.000000D+00
     34  0.000000D+00  0.000000D+00  0.000000D+00  0.597325D+00  0.000000D+00
     35  0.000000D+00  0.000000D+00  0.000000D+00  0.000000D+00  0.597325D+00
     36  0.000000D+00  0.000000D+00  0.000000D+00  0.000000D+00  0.000000D+00
     37  0.000000D+00  0.487537D-01  0.000000D+00  0.000000D+00  0.000000D+00
     38  0.000000D+00  0.000000D+00  0.487537D-01  0.000000D+00  0.000000D+00
     39  0.000000D+00  0.000000D+00  0.000000D+00  0.487537D-01  0.000000D+00
     40  0.000000D+00  0.000000D+00  0.000000D+00  0.000000D+00  0.487537D-01
     41  0.000000D+00  0.000000D+00  0.000000D+00  0.000000D+00  0.000000D+00
     42  0.000000D+00  0.157431D-01  0.000000D+00  0.000000D+00  0.000000D+00
     43  0.000000D+00  0.000000D+00  0.157431D-01  0.000000D+00  0.000000D+00
     44  0.000000D+00  0.000000D+00  0.000000D+00  0.157431D-01  0.000000D+00
     45  0.000000D+00  0.000000D+00  0.000000D+00  0.000000D+00  0.157431D-01
     46  0.000000D+00  0.000000D+00  0.000000D+00  0.000000D+00  0.000000D+00
     47  0.000000D+00  0.488151D-02  0.000000D+00  0.000000D+00  0.000000D+00
     48  0.000000D+00  0.000000D+00  0.488151D-02  0.000000D+00  0.000000D+00
     49  0.000000D+00  0.000000D+00  0.000000D+00  0.488151D-02  0.000000D+00
     50  0.000000D+00  0.000000D+00  0.000000D+00  0.000000D+00  0.488151D-02
     51  0.000000D+00  0.000000D+00  0.000000D+00  0.000000D+00  0.000000D+00
     52  0.000000D+00  0.000000D+00  0.000000D+00  0.000000D+00  0.000000D+00
     53  0.000000D+00  0.000000D+00  0.000000D+00  0.000000D+00  0.000000D+00
     54  0.000000D+00  0.000000D+00  0.000000D+00  0.000000D+00  0.000000D+00
     55  0.000000D+00  0.000000D+00  0.000000D+00  0.000000D+00  0.000000D+00
     56  0.000000D+00  0.000000D+00  0.000000D+00  0.000000D+00  0.000000D+00
     57  0.000000D+00  0.000000D+00  0.000000D+00  0.000000D+00  0.000000D+00
     58  0.000000D+00  0.000000D+00  0.000000D+00  0.000000D+00  0.000000D+00
     59  0.000000D+00  0.000000D+00  0.000000D+00  0.000000D+00  0.000000D+00
     60  0.000000D+00  0.000000D+00  0.000000D+00  0.000000D+00  0.000000D+00
     61  0.000000D+00  0.000000D+00  0.000000D+00  0.000000D+00  0.000000D+00
     62  0.000000D+00  0.000000D+00  0.000000D+00  0.000000D+00  0.000000D+00
     63  0.000000D+00  0.000000D+00  0.000000D+00  0.000000D+00  0.000000D+00
     64  0.000000D+00  0.000000D+00  0.000000D+00  0.000000D+00  0.000000D+00
     65  0.000000D+00  0.000000D+00  0.000000D+00  0.000000D+00  0.000000D+00
     66  0.447556D-01  0.123819D+00  0.000000D+00  0.000000D+00  0.000000D+00
     67  0.118099D+00  0.142510D+00  0.000000D+00  0.000000D+00  0.000000D+00
     68  0.231791D+00  0.288460D-01  0.000000D+00  0.000000D+00  0.000000D+00
     69  0.325484D+00  0.123094D-02  0.000000D+00  0.000000D+00  0.000000D+00
     70  0.270193D+00  0.205948D-03  0.000000D+00  0.000000D+00  0.000000D+00
     71  0.167085D+00  0.325077D-04  0.000000D+00  0.000000D+00  0.000000D+00
     72  0.000000D+00  0.000000D+00  0.698947D-01  0.000000D+00  0.000000D+00
     73  0.000000D+00  0.000000D+00  0.000000D+00  0.698947D-01  0.000000D+00
     74  0.121178D-01 -0.218170D+00  0.000000D+00  0.000000D+00  0.000000D+00
     75  0.000000D+00  0.000000D+00  0.178359D+00  0.000000D+00  0.000000D+00
     76  0.000000D+00  0.000000D+00  0.000000D+00  0.178359D+00  0.000000D+00
     77  0.575430D-01 -0.153823D+00  0.000000D+00  0.000000D+00  0.000000D+00
     78  0.000000D+00  0.000000D+00  0.536354D-02  0.000000D+00  0.000000D+00
     79  0.000000D+00  0.000000D+00  0.000000D+00  0.536354D-02  0.000000D+00
     80  0.732558D+00  0.523805D-02  0.000000D+00  0.000000D+00  0.000000D+00
     81  0.000000D+00  0.000000D+00  0.126908D-02  0.000000D+00  0.000000D+00
     82  0.000000D+00  0.000000D+00  0.000000D+00  0.126908D-02  0.000000D+00
     83  0.885321D+00  0.135103D-02  0.000000D+00  0.000000D+00  0.000000D+00
     84 -0.132707D-02  0.248868D+00  0.000000D+00  0.000000D+00  0.000000D+00
     85  0.000000D+00  0.000000D+00 -0.213923D+00  0.000000D+00  0.000000D+00
     86  0.000000D+00  0.000000D+00  0.000000D+00 -0.213923D+00  0.000000D+00
     87  0.000000D+00  0.000000D+00  0.000000D+00  0.000000D+00  0.389656D-01
     88  0.000000D+00  0.000000D+00  0.000000D+00  0.000000D+00  0.000000D+00
     89 -0.130710D+00  0.114569D-01  0.000000D+00  0.000000D+00  0.000000D+00
     90  0.000000D+00  0.000000D+00  0.143364D-01  0.000000D+00  0.000000D+00
     91  0.000000D+00  0.000000D+00  0.000000D+00  0.143364D-01  0.000000D+00
     92  0.000000D+00  0.000000D+00  0.000000D+00  0.000000D+00  0.360715D-01
     93  0.000000D+00  0.000000D+00  0.000000D+00  0.000000D+00  0.000000D+00
     94 -0.237361D+00  0.837127D-02  0.000000D+00  0.000000D+00  0.000000D+00
     95  0.000000D+00  0.000000D+00  0.933070D-02  0.000000D+00  0.000000D+00
     96  0.000000D+00  0.000000D+00  0.000000D+00  0.933070D-02  0.000000D+00
     97  0.000000D+00  0.000000D+00  0.000000D+00  0.000000D+00  0.134929D-01
     98  0.000000D+00  0.000000D+00  0.000000D+00  0.000000D+00  0.000000D+00
     99 -0.299668D+00  0.361193D-02  0.000000D+00  0.000000D+00  0.000000D+00
    100  0.000000D+00  0.000000D+00  0.381019D-02  0.000000D+00  0.000000D+00
    101  0.000000D+00  0.000000D+00  0.000000D+00  0.381019D-02  0.000000D+00
    102  0.000000D+00  0.000000D+00  0.000000D+00  0.000000D+00  0.451499D-02
    103  0.000000D+00  0.000000D+00  0.000000D+00  0.000000D+00  0.000000D+00
    104  0.429779D-01 -0.113076D-01  0.000000D+00  0.000000D+00  0.000000D+00
    105  0.000000D+00  0.000000D+00 -0.112018D-01  0.000000D+00  0.000000D+00
    106  0.000000D+00  0.000000D+00  0.000000D+00 -0.112018D-01  0.000000D+00
    107  0.000000D+00  0.000000D+00  0.000000D+00  0.000000D+00 -0.104708D-01
    108  0.000000D+00  0.000000D+00  0.000000D+00  0.000000D+00  0.000000D+00
    109  0.000000D+00  0.000000D+00  0.000000D+00  0.000000D+00  0.000000D+00
    110  0.000000D+00  0.000000D+00  0.000000D+00  0.000000D+00  0.000000D+00
               31            32            33            34            35 
     31  0.100000D+01
     32  0.000000D+00  0.100000D+01
     33  0.000000D+00  0.000000D+00  0.100000D+01
     34  0.000000D+00  0.000000D+00  0.000000D+00  0.100000D+01
     35  0.000000D+00  0.000000D+00  0.000000D+00  0.000000D+00  0.100000D+01
     36  0.597325D+00  0.000000D+00  0.000000D+00  0.000000D+00  0.000000D+00
     37  0.000000D+00  0.248282D+00  0.000000D+00  0.000000D+00  0.000000D+00
     38  0.000000D+00  0.000000D+00  0.248282D+00  0.000000D+00  0.000000D+00
     39  0.000000D+00  0.000000D+00  0.000000D+00  0.248282D+00  0.000000D+00
     40  0.000000D+00  0.000000D+00  0.000000D+00  0.000000D+00  0.248282D+00
     41  0.487537D-01  0.000000D+00  0.000000D+00  0.000000D+00  0.000000D+00
     42  0.000000D+00  0.933126D-01  0.000000D+00  0.000000D+00  0.000000D+00
     43  0.000000D+00  0.000000D+00  0.933126D-01  0.000000D+00  0.000000D+00
     44  0.000000D+00  0.000000D+00  0.000000D+00  0.933126D-01  0.000000D+00
     45  0.000000D+00  0.000000D+00  0.000000D+00  0.000000D+00  0.933126D-01
     46  0.157431D-01  0.000000D+00  0.000000D+00  0.000000D+00  0.000000D+00
     47  0.000000D+00  0.313843D-01  0.000000D+00  0.000000D+00  0.000000D+00
     48  0.000000D+00  0.000000D+00  0.313843D-01  0.000000D+00  0.000000D+00
     49  0.000000D+00  0.000000D+00  0.000000D+00  0.313843D-01  0.000000D+00
     50  0.000000D+00  0.000000D+00  0.000000D+00  0.000000D+00  0.313843D-01
     51  0.488151D-02  0.000000D+00  0.000000D+00  0.000000D+00  0.000000D+00
     52  0.000000D+00  0.000000D+00  0.000000D+00  0.000000D+00  0.000000D+00
     53  0.000000D+00  0.000000D+00  0.000000D+00  0.000000D+00  0.000000D+00
     54  0.000000D+00  0.000000D+00  0.000000D+00  0.000000D+00  0.000000D+00
     55  0.000000D+00  0.000000D+00  0.000000D+00  0.000000D+00  0.000000D+00
     56  0.000000D+00  0.000000D+00  0.000000D+00  0.000000D+00  0.000000D+00
     57  0.000000D+00  0.000000D+00  0.000000D+00  0.000000D+00  0.000000D+00
     58  0.000000D+00  0.000000D+00  0.000000D+00  0.000000D+00  0.000000D+00
     59  0.000000D+00  0.000000D+00  0.000000D+00  0.000000D+00  0.000000D+00
     60  0.000000D+00  0.000000D+00  0.000000D+00  0.000000D+00  0.000000D+00
     61  0.000000D+00  0.000000D+00  0.000000D+00  0.000000D+00  0.000000D+00
     62  0.000000D+00  0.000000D+00  0.000000D+00  0.000000D+00  0.000000D+00
     63  0.000000D+00  0.000000D+00  0.000000D+00  0.000000D+00  0.000000D+00
     64  0.000000D+00  0.000000D+00  0.000000D+00  0.000000D+00  0.000000D+00
     65  0.000000D+00  0.000000D+00  0.000000D+00  0.000000D+00  0.000000D+00
     66  0.000000D+00  0.411614D+00  0.000000D+00  0.000000D+00  0.000000D+00
     67  0.000000D+00  0.412802D+00  0.000000D+00  0.000000D+00  0.000000D+00
     68  0.000000D+00  0.122809D+00  0.000000D+00  0.000000D+00  0.000000D+00
     69  0.000000D+00  0.734852D-02  0.000000D+00  0.000000D+00  0.000000D+00
     70  0.000000D+00  0.132658D-02  0.000000D+00  0.000000D+00  0.000000D+00
     71  0.000000D+00  0.218097D-03  0.000000D+00  0.000000D+00  0.000000D+00
     72  0.000000D+00  0.000000D+00  0.239329D+00  0.000000D+00  0.000000D+00
     73  0.000000D+00  0.000000D+00  0.000000D+00  0.239329D+00  0.000000D+00
     74  0.000000D+00 -0.195147D+00  0.000000D+00  0.000000D+00  0.000000D+00
     75  0.000000D+00  0.000000D+00  0.499010D+00  0.000000D+00  0.000000D+00
     76  0.000000D+00  0.000000D+00  0.000000D+00  0.499010D+00  0.000000D+00
     77  0.000000D+00 -0.722911D-01  0.000000D+00  0.000000D+00  0.000000D+00
[...]
      3   0.174356D-05 -0.695000D-05  0.818617D-01 -0.279494D+00  0.322757D-05
      4   0.000000D+00  0.000000D+00  0.000000D+00  0.000000D+00  0.000000D+00
      5   0.175756D-05  0.000000D+00  0.126565D+00  0.370711D-01  0.109689D-05
      6   0.000000D+00  0.198085D-05 -0.370706D-01  0.126567D+00  0.000000D+00
      7   0.000000D+00  0.000000D+00  0.000000D+00  0.000000D+00  0.000000D+00
      8   0.000000D+00  0.298061D-05  0.516440D-01 -0.176317D+00 -0.215807D-05
      9  -0.248560D-05  0.000000D+00  0.176320D+00  0.516429D-01 -0.734816D-05
     10   0.000000D+00  0.000000D+00  0.000000D+00  0.000000D+00  0.000000D+00
     11   0.000000D+00  0.000000D+00  0.000000D+00  0.000000D+00  0.000000D+00
     12   0.000000D+00  0.000000D+00  0.000000D+00  0.000000D+00  0.000000D+00
     13   0.000000D+00  0.000000D+00  0.000000D+00  0.000000D+00  0.000000D+00
     14   0.000000D+00  0.000000D+00  0.000000D+00  0.000000D+00  0.000000D+00
     15  -0.400797D-05 -0.125778D-05 -0.125631D+00 -0.367982D-01 -0.133003D-04
     16   0.116939D-05 -0.430861D-05  0.367973D-01 -0.125635D+00  0.390549D-05
                 6             7             8             9            10 
      1  -0.459757D+03 -0.459752D+03 -0.459741D+03 -0.459741D+03 -0.459732D+03
      2  -0.387238D-05  0.000000D+00 -0.622760D+00 -0.182414D+00  0.000000D+00
      3  -0.131947D-04  0.000000D+00  0.182422D+00 -0.622733D+00  0.000000D+00
      4   0.000000D+00  0.000000D+00  0.000000D+00  0.000000D+00  0.000000D+00
      5   0.000000D+00  0.000000D+00  0.179796D+00  0.526647D-01  0.000000D+00
      6   0.168436D-05  0.000000D+00 -0.526668D-01  0.179789D+00  0.000000D+00
      7   0.000000D+00  0.000000D+00  0.000000D+00  0.000000D+00  0.000000D+00
      8   0.840773D-05  0.000000D+00 -0.116075D+00  0.396249D+00  0.000000D+00
      9  -0.246773D-05  0.000000D+00 -0.396261D+00 -0.116071D+00  0.000000D+00
     10   0.000000D+00  0.000000D+00  0.000000D+00  0.000000D+00  0.000000D+00
     11   0.000000D+00  0.000000D+00  0.000000D+00  0.000000D+00  0.000000D+00
     12   0.000000D+00  0.000000D+00  0.000000D+00  0.000000D+00  0.000000D+00
     13   0.000000D+00  0.000000D+00  0.000000D+00  0.000000D+00  0.000000D+00
     14   0.000000D+00  0.000000D+00  0.000000D+00  0.000000D+00  0.000000D+00
     15  -0.418204D-05  0.000000D+00 -0.219264D+00 -0.642239D-01  0.000000D+00
     16  -0.142465D-04  0.000000D+00  0.642278D-01 -0.219250D+00  0.000000D+00
                11            12            13            14            15 
      1  -0.459724D+03 -0.459724D+03 -0.459724D+03 -0.459724D+03 -0.459721D+03
      2   0.000000D+00  0.000000D+00  0.189207D-04  0.603927D-05 -0.249339D-01
      3   0.000000D+00  0.000000D+00 -0.554365D-05  0.206131D-04  0.730365D-02
      4   0.000000D+00  0.000000D+00  0.000000D+00  0.000000D+00  0.000000D+00
      5   0.000000D+00  0.000000D+00 -0.620373D-05 -0.198765D-05 -0.757915D-02
      6   0.000000D+00  0.000000D+00  0.181766D-05 -0.678418D-05  0.222009D-02
      7   0.000000D+00  0.000000D+00  0.000000D+00  0.000000D+00  0.000000D+00
      8   0.000000D+00  0.000000D+00  0.221138D-05 -0.789077D-05 -0.313328D-01
      9   0.000000D+00  0.000000D+00  0.754759D-05  0.231188D-05 -0.106967D+00
     10   0.000000D+00  0.000000D+00  0.000000D+00  0.000000D+00  0.000000D+00
     11   0.000000D+00  0.000000D+00  0.000000D+00  0.000000D+00  0.000000D+00
     12   0.000000D+00  0.000000D+00  0.000000D+00  0.000000D+00  0.000000D+00
     13   0.000000D+00  0.000000D+00  0.000000D+00  0.000000D+00  0.000000D+00
     14   0.000000D+00  0.000000D+00  0.000000D+00  0.000000D+00  0.000000D+00
     15   0.000000D+00  0.000000D+00  0.437316D-04  0.136503D-04  0.317675D+00
     16   0.000000D+00  0.000000D+00 -0.128130D-04  0.465906D-04 -0.930536D-01

 Test job not archived.
 1\1\GINC-HERMES\SP\UCIS-FC\Gen\Cl1H1\ANDY\23-Oct-2025\0\\#P ucis(mo,ns
 tates=15)/cc-pVTZ extrabasis gfprint nosymm int(acc2e=16) SCF(NoVarAcc
 ,NoIncFock,MaxCYC=64) IOp(3/196=1) IOp(3/33=1) Pop=Full IOp(3/117=1,3/
 194=10003501,3/195=5,6/18=1,8/10=91,8/37=7,8/38=-10,9/127=2) OUTPUT=(f
 af,i4lab,Files=(514,619,751,870,1,2,3,4,5,6,7,8,9,10,11,12,13,14))\\Ti
 tle Card Required\\0,1\Cl,0,0.,0.,-0.65735\H,0,0.,0.,0.65735\\Version=
 ES64L-GDVRevJ.28+\HF=-460.1062048\MP2=-460.2466366\PUHF=-460.1062048\P
 MP2-0=-460.2466366\S2=0.\S2-1=0.\S2A=0.\RMSD=1.391e-09\PG=C*V [C*(H1Cl
 1)]\\@


 IF GOD HAD MEANT MAN TO SEE THE SUN RISE, HE
 WOULD HAVE SCHEDULED IT FOR A LATER HOUR.
 RW2BAF: Writing unformatted file "MatrixElements.faf"
 Gaussian matrix elements                                         Version   3 NLab=11 I4Labs=T I2Labs=F
 Write SHELL TO ATOM MAP                   from file      0 offset           0 length                  36 to binary array file.
 Write SHELL TYPES                         from file      0 offset           0 length                  36 to binary array file.
 Write NUMBER OF PRIMITIVES PER SHELL      from file      0 offset           0 length                  36 to binary array file.
 Write PRIMITIVE EXPONENTS                 from file      0 offset           0 length                  73 to binary array file.
 Write CONTRACTION COEFFICIENTS            from file      0 offset           0 length                  73 to binary array file.
 Write P(S=P) CONTRACTION COEFFICIENTS     from file      0 offset           0 length                  73 to binary array file.
 Write COORDINATES OF EACH SHELL           from file      0 offset           0 length                 108 to binary array file.
 Write BONDS PER ATOM                      from file      0 offset           0 length                   2 to binary array file.
 Write BONDED ATOMS                        from file      0 offset           0 length                   2 to binary array file.
 Write BOND TYPES                          from file      0 offset           0 length                   2 to binary array file.
 Write ONIOM CHARGE/MULT                   from file      0 offset           0 length                  32 to binary array file.
 Write ONIOM ATOM LAYERS                   from file      0 offset           0 length                   2 to binary array file.
 Write ONIOM ATOM MODIFIERS                from file      0 offset           0 length                   2 to binary array file.
 Write ONIOM ATOM TYPES                    from file      0 offset           0 length                   2 to binary array file.
 Write ONIOM LINK ATOMS                    from file      0 offset           0 length                   2 to binary array file.
 Write ONIOM LINK CHARGES                  from file      0 offset           0 length                   2 to binary array file.
 Write ONIOM LINK DISTANCES                from file      0 offset           0 length                   8 to binary array file.
 Write SYMINF INTEGERS                     from file      0 offset           0 length                  26 to binary array file.
 Write ROTTR TO INPUT ORIENTATION          from file      0 offset           0 length                  12 to binary array file.
 Write TITLE                               from file      0 offset           0 length                   5 to binary array file.
 Write ROUTE                               from file      0 offset           0 length                  73 to binary array file.
 Write INFO1-9                             from file      0 offset           0 length                   9 to binary array file.
 Write METHOD                              from file      0 offset           0 length                   2 to binary array file.
 Write BASIS NAME                          from file      0 offset           0 length                   1 to binary array file.
 Write LINK0 COMMANDS                      from file      0 offset           0 length                   8 to binary array file.
 Write POINT GROUP                         from file      0 offset           0 length                   4 to binary array file.
 Write POINT GROUP DIMENSIONS              from file      0 offset           0 length                   8 to binary array file.
 Write POINT GROUP IRREP NAMES             from file      0 offset           0 length                   8 to binary array file.
 Write POINT GROUP CLASS NAMES             from file      0 offset           0 length                   8 to binary array file.
 Write POINT GROUP GENERATORS              from file      0 offset           0 length                   2 to binary array file.
 Write POINT GROUP CLASS OF OPERATORS      from file      0 offset           0 length                   4 to binary array file.
 Write POINT GROUP ROTATIONS               from file      0 offset           0 length                  48 to binary array file.
 Write POINT GROUP CELL TRANS              from file      0 offset           0 length                  12 to binary array file.
 Write POINT GROUP CHAR TABLE              from file      0 offset           0 length                  16 to binary array file.
 Write POINT GROUP ATOM PERMUTATIONS       from file      0 offset           0 length                   8 to binary array file.
 Write ILSW                                from file      0 offset           0 length                 100 to binary array file.
 Write RLSW                                from file      0 offset           0 length                 100 to binary array file.
 Write GAUSSIAN SCALARS                    from file 100501 offset           0 to binary array file.
 Write OPTIMIZATION FLAGS                  from file      0 offset           0 length                   2 to binary array file.
 Write INTEGER ISO                         from file      0 offset           0 length                   2 to binary array file.
 Write INTEGER SPIN                        from file      0 offset           0 length                   2 to binary array file.
 Write REAL ZEFFECTIVE                     from file      0 offset           0 length                   2 to binary array file.
 Write REAL QUADRUPOLEMOMENT               from file      0 offset           0 length                   2 to binary array file.
 Write REAL GFACTOR                        from file      0 offset           0 length                   2 to binary array file.
 Write REAL ZNUCLEAR                       from file      0 offset           0 length                   2 to binary array file.
 Write MULLIKEN CHARGES                    from file      0 offset           0 length                   2 to binary array file.
 Write NUCLEAR GRADIENT                    from file      0 offset           0 length                   6 to binary array file.
 Write NON-ADIABATIC COUPLING              from file      0 offset           0 length                   6 to binary array file.
 Write ETRAN SCALARS                       from file      0 offset           0 length                  20 to binary array file.
 Write ETRAN SPINS                         from file      0 offset           0 length                  15 to binary array file.
 Write ETRAN SYMS                          from file      0 offset           0 length                  15 to binary array file.
 Write ETRAN STATE VALUES                  from file      0 offset           0 length                 240 to binary array file.
 Write MO TRANSFORMATION WINDOW            from file 100569 offset           0 length                   2 to binary array file.
 Write HARM CONSTRAINT C AND FC            from file      0 offset           0 length                  12 to binary array file.
 Write FINITE EM FIELD                     from file 100521 offset           0 length                 105 to binary array file.
 Write OVERLAP                             from file 100514 offset           0 length                6105 to binary array file.
 Write CORE HAMILTONIAN ALPHA              from file 100515 offset           0 length                6105 to binary array file.
 Write CORE HAMILTONIAN BETA               from file 100515 offset        6105 length                6105 to binary array file.
 Write KINETIC ENERGY                      from file 100516 offset           0 length                6105 to binary array file.
 Write ORTHONORMAL BASIS                   from file 100685 offset           0 length               11660 to binary array file.
 Write DIPOLE INTEGRALS                    from file 100518 offset           0 length               18315 to binary array file.
 Write DIP VEL INTEGRALS                   from file 100572 offset           0 length               18315 to binary array file.
 Write R X DEL INTEGRALS                   from file 100572 offset       18315 length               18315 to binary array file.
 Write R X DEL - DEL X R INTEGRALS         from file 100572 offset       36630 length               36630 to binary array file.
 Array MAGNETIC FIELD P1 (GIAO)             on  file 100696 does not exist.
 Write ALPHA ORBITAL ENERGIES              from file      0 offset           0 length                 106 to binary array file.
 Write BETA ORBITAL ENERGIES               from file      0 offset           0 length                 106 to binary array file.
 Write ALPHA MO COEFFICIENTS               from file 100524 offset           0 length               11660 to binary array file.
 Write BETA MO COEFFICIENTS                from file 100526 offset           0 length               11660 to binary array file.
 Write SCF ORBITAL OCCUPATIONS             from file 100861 offset           0 length                 212 to binary array file.
 Write ALPHA FOCK MATRIX                   from file 100536 offset           0 length                6105 to binary array file.
 Write BETA FOCK MATRIX                    from file 100538 offset           0 length                6105 to binary array file.
 Write ENERGY-WEIGHTED DENSITY             from file 100571 offset           0 length                6105 to binary array file.
 Write SCF ENERGY-WEIGHTED DENSITY         from file 100571 offset        6105 length                6105 to binary array file.
 Write ALPHA SCF DENSITY MATRIX            from file      0 offset           0 length                6105 to binary array file.
 Write BETA SCF DENSITY MATRIX             from file      0 offset           0 length                6105 to binary array file.
 Write ALPHA CI RHO(1) DENSITY MATRIX      from file      0 offset           0 length                6105 to binary array file.
 Write BETA CI RHO(1) DENSITY MATRIX       from file      0 offset           0 length                6105 to binary array file.
 Write TRANS MO COEFFICIENTS               from file 100548 offset           0 length               19800 to binary array file.
 Write EXCITED STATE DIMS                  from file      0 offset           0 length                   8 to binary array file.
 Write EXCITED STATE SPINS                 from file      0 offset           0 length                  15 to binary array file.
 Write EXCITED STATE DENSITIES             from file      0 offset           0 length              183150 to binary array file.
 Write GROUND TO EXCITED STATE DENSITIES   from file      0 offset           0 length              363000 to binary array file.
 Write SSCIFILE INTEGERS                   from file      0 offset           0 length                  12 to binary array file.
 Write SSCIFILE REALS                      from file      0 offset           0 length               15675 to binary array file.
 WrULi1:  IRw=100514 LRw=    6105 NInt=       0 IOff=       0 NIntR=       0 NInt=       0 NReal=    6105
 Write FILE     514 REALS                  from file 100514 offset           0 length                6105 to binary array file.
 WrULi1:  IRw=100619 LRw=     341 NInt=       0 IOff=       0 NIntR=       0 NInt=       0 NReal=     341
 Write FILE     619 REALS                  from file 100619 offset           0 length                 341 to binary array file.
 WrULi1:  IRw=100751 LRw=   18315 NInt=       0 IOff=       0 NIntR=       0 NInt=       0 NReal=   18315
 Write FILE     751 REALS                  from file 100751 offset           0 length               18315 to binary array file.
 WrULi1:  IRw=100870 LRw=    6105 NInt=       0 IOff=       0 NIntR=       0 NInt=       0 NReal=    6105
 Write FILE     870 REALS                  from file 100870 offset           0 length                6105 to binary array file.
 WrULi1:  IRw=100001 LRw=   11223 NInt=       0 IOff=       0 NIntR=       0 NInt=       0 NReal=   11223
 Write FILE       1 REALS                  from file 100001 offset           0 length               11223 to binary array file.
 WrULi1:  IRw=100002 LRw=   68121 NInt=       0 IOff=       0 NIntR=       0 NInt=       0 NReal=   68121
 Write FILE       2 REALS                  from file 100002 offset           0 length               68121 to binary array file.
 WrULi1:  IRw=100003 LRw=   11223 NInt=       0 IOff=       0 NIntR=       0 NInt=       0 NReal=   11223
 Write FILE       3 REALS                  from file 100003 offset           0 length               11223 to binary array file.
 WrULi1:  IRw=100004 LRw=       6 NInt=       0 IOff=       0 NIntR=       0 NInt=       0 NReal=       6
 Write FILE       4 REALS                  from file 100004 offset           0 length                   6 to binary array file.
 WrULi1:  IRw=100005 LRw=   68121 NInt=       0 IOff=       0 NIntR=       0 NInt=       0 NReal=   68121
 Write FILE       5 REALS                  from file 100005 offset           0 length               68121 to binary array file.
 WrULi1:  IRw=100006 LRw=      36 NInt=       0 IOff=       0 NIntR=       0 NInt=       0 NReal=      36
 Write FILE       6 REALS                  from file 100006 offset           0 length                  36 to binary array file.
 WrULi1:  IRw=100007 LRw=   22968 NInt=       0 IOff=       0 NIntR=       0 NInt=       0 NReal=   22968
 Write FILE       7 REALS                  from file 100007 offset           0 length               22968 to binary array file.
 WrULi1:  IRw=100008 LRw=   22968 NInt=       0 IOff=       0 NIntR=       0 NInt=       0 NReal=   22968
 Write FILE       8 REALS                  from file 100008 offset           0 length               22968 to binary array file.
 WrULi1:  IRw=100009 LRw=       6 NInt=       0 IOff=       0 NIntR=       0 NInt=       0 NReal=       6
 Write FILE       9 REALS                  from file 100009 offset           0 length                   6 to binary array file.
 WrULi1:  IRw=100010 LRw=   68121 NInt=       0 IOff=       0 NIntR=       0 NInt=       0 NReal=   68121
 Write FILE      10 REALS                  from file 100010 offset           0 length               68121 to binary array file.
 WrULi1:  IRw=100011 LRw=     783 NInt=       0 IOff=       0 NIntR=       0 NInt=       0 NReal=     783
 Write FILE      11 REALS                  from file 100011 offset           0 length                 783 to binary array file.
 WrULi1:  IRw=100012 LRw=    1566 NInt=       0 IOff=       0 NIntR=       0 NInt=       0 NReal=    1566
 Write FILE      12 REALS                  from file 100012 offset           0 length                1566 to binary array file.
 WrULi1:  IRw=100013 LRw=    1566 NInt=       0 IOff=       0 NIntR=       0 NInt=       0 NReal=    1566
 Write FILE      13 REALS                  from file 100013 offset           0 length                1566 to binary array file.
 WrULi1:  IRw=100014 LRw=     783 NInt=       0 IOff=       0 NIntR=       0 NInt=       0 NReal=     783
 Write FILE      14 REALS                  from file 100014 offset           0 length                 783 to binary array file.
 No 2e integrals to process.
 Job cpu time:       0 days  0 hours  0 minutes 59.0 seconds.
 Elapsed time:       0 days  0 hours  0 minutes  7.3 seconds.
 File lengths (MBytes):  RWF=     77 Int=      0 D2E=      0 Chk=      8 Scr=      1
 Normal termination of Gaussian DV at Thu Oct 23 10:22:19 2025.
