 Entering Gaussian System, Link 0=gdv
 Initial command:
 /home/andy/gdvj28p/gdv/l1.exe "/home/andy/tdci-test/TDCI-CAP/test/Test3_CO_linear_angles/g/Gau-987520.inp" -scrdir="/home/andy/tdci-test/TDCI-CAP/test/Test3_CO_linear_angles/g/"
 Entering Link 1 = /home/andy/gdvj28p/gdv/l1.exe PID=    987522.
  
 Copyright (c) 1988-2024, Gaussian, Inc.  All Rights Reserved.
  
 This is the private, development version of
 the Gaussian(R) DV system of programs. It is based on
 the Gaussian(R) 16 system (copyright 2016, Gaussian, Inc.),
 the Gaussian(R) 09 system (copyright 2009, Gaussian, Inc.),
 the Gaussian(R) 03 system (copyright 2003, Gaussian, Inc.),
 the Gaussian(R) 98 system (copyright 1998, Gaussian, Inc.),
 the Gaussian(R) 94 system (copyright 1995, Gaussian, Inc.),
 the Gaussian 92(TM) system (copyright 1992, Gaussian, Inc.),
 the Gaussian 90(TM) system (copyright 1990, Gaussian, Inc.),
 the Gaussian 88(TM) system (copyright 1988, Gaussian, Inc.),
 the Gaussian 86(TM) system (copyright 1986, Carnegie Mellon
 University), and the Gaussian 82(TM) system (copyright 1983,
 Carnegie Mellon University). Gaussian is a federally registered
 trademark of Gaussian, Inc.
  
 This software contains proprietary and confidential information,
 including trade secrets, belonging to Gaussian, Inc.
  
 This software is provided under written license and may be
 used, copied, transmitted, or stored only in accord with that
 written license.
  
 The following legend is applicable only to US Government
 contracts under FAR:
  
                    RESTRICTED RIGHTS LEGEND
  
 Use, reproduction and disclosure by the US Government is
 subject to restrictions as set forth in subparagraphs (a)
 and (c) of the Commercial Computer Software - Restricted
 Rights clause in FAR 52.227-19.
  
 Gaussian, Inc.
 340 Quinnipiac St., Bldg. 40, Wallingford CT 06492
  
  
 ---------------------------------------------------------------
 Warning -- This program may not be used in any manner that
 competes with the business of Gaussian, Inc. or will provide
 assistance to any competitor of Gaussian, Inc.  The licensee
 of this program is prohibited from giving any competitor of
 Gaussian, Inc. access to this program.  By using this program,
 the user acknowledges that Gaussian, Inc. is engaged in the
 business of creating and licensing software in the field of
 computational chemistry and represents and warrants to the
 licensee that it is not a competitor of Gaussian, Inc. and that
 it will not use this program in any manner prohibited above.
 ---------------------------------------------------------------
  

 Cite this work as:
 Gaussian Development Version, Revision J.28+,
 M. J. Frisch, G. W. Trucks, G. Scalmani, J. R. Cheeseman, X. Li, 
 J. Bloino, B. G. Janesko, A. V. Marenich, J. Zheng, F. Lipparini, 
 A. Jenkins, A. Liu, H. Liu, H. B. Schlegel, G. E. Scuseria, 
 M. A. Robb, V. Barone, G. A. Petersson, H. Nakatsuji, B. Mennucci, 
 C. Adamo, N. Rega, M. Caricato, H. P. Hratchian, J. V. Ortiz, 
 F. Pawlowski, A. F. Izmaylov, H. Hu, C. Liao, J. L. Sonnenberg, 
 D. Williams-Young, F. Ding, R. Gomperts, F. Egidi, J. Goings, 
 B. Peng, A. Petrone, T. Henderson, D. Ranasinghe, V. G. Zakrzewski, 
 J. Gao, G. Zheng, W. Liang, M. Hada, M. Ehara, K. Toyota, R. Fukuda, 
 J. Hasegawa, M. Ishida, T. Nakajima, Y. Honda, O. Kitao, H. Nakai, 
 T. Vreven, K. Throssell, J. A. Montgomery, Jr., J. E. Peralta, 
 F. Ogliaro, M. J. Bearpark, J. J. Heyd, E. N. Brothers, K. N. Kudin, 
 V. N. Staroverov, T. A. Keith, R. Kobayashi, J. Normand, 
 K. Raghavachari, A. P. Rendell, J. C. Burant, S. S. Iyengar, 
 M. Cossi, J. M. Millam, M. Klene, R. Cammi, R. L. Martin, O. Farkas, 
 J. B. Foresman, and D. J. Fox, Gaussian, Inc., Wallingford CT, 2023.
 
 *******************************************
 Gaussian DV:  ES64L-GDVRevJ.28+ 16-Apr-2024
                 19-Oct-2025 
 *******************************************
 %chk=gdv.chk
 %mem=32GB
 %nproc=12
 Will use up to   12 processors via shared memory.
 ----------------------------------------------------------------------
 #P ucis(mo,nstates=15)/cc-pVTZ extrabasis gfprint nosymm int(acc2e=16)
  SCF(NoVarAcc,NoIncFock,MaxCYC=64) IOp(3/196=1) IOp(3/33=1) Pop=Full I
 Op(3/194=10003501,3/195=5,6/18=1,8/10=91,8/37=3,8/38=-27,9/127=2) OUTP
 UT=(faf,i4lab,Files=(514,619,751,870,1,2,3,4,5,6,7,8,9,10,11,12,13,14)
 )
 ----------------------------------------------------------------------
 1/37=-1,38=1,172=1/1;
 2/12=2,15=1/2;
 3/5=16,6=1,10=1,11=2,24=100,25=1,27=16,30=1,33=1,116=2,160=20,194=10003501,195=5,196=1/1,2,3,8;
 4//1;
 5/5=100002,7=64,38=1,87=16/2;
 8/6=1,10=91,37=3,38=-27,87=16/1,4;
 9/41=15,42=3,87=16,127=2/14;
 6/7=3,18=1,87=16,125=20/1;
 99/5=1,6=100000,9=1,125=20/99;
 Leave Link    1 at Sun Oct 19 17:35:54 2025, MaxMem=  4294967296 cpu:               0.1 elap:               0.1
 (Enter /home/andy/gdvj28p/gdv/l101.exe)
 -------------------
 Title Card Required
 -------------------
 Symbolic Z-matrix:
 Charge =     0 Multiplicity =     1
 C                     0.        0.       -0.5615 
 O                     0.        0.        0.5615 
 
 ITRead=  0  0
 MicOpt= -1 -1
 NAtoms=      2 NQM=        2 NQMF=       0 NMMI=      0 NMMIF=      0
                NMic=       0 NMicF=      0.
                    Isotopes and Nuclear Properties:
 (Nuclear quadrupole moments (NQMom) in fm**2, nuclear magnetic moments (NMagM)
  in nuclear magnetons)

  Atom         1           2
 IAtWgt=          12          16
 AtmWgt=  12.0000000  15.9949146
 NucSpn=           0           0
 AtZEff=   -0.000000   -0.000000
 NQMom=    0.0000000   0.0000000
 NMagM=    0.0000000   0.0000000
 AtZNuc=   6.0000000   8.0000000
 Leave Link  101 at Sun Oct 19 17:35:54 2025, MaxMem=  4294967296 cpu:               0.2 elap:               0.2
 (Enter /home/andy/gdvj28p/gdv/l202.exe)
                          Input orientation:                          
 ---------------------------------------------------------------------
 Center     Atomic      Atomic             Coordinates (Angstroms)
 Number     Number       Type             X           Y           Z
 ---------------------------------------------------------------------
      1          6           0        0.000000    0.000000   -0.561500
      2          8           0        0.000000    0.000000    0.561500
 ---------------------------------------------------------------------
 Symmetry turned off by external request.
 Stoichiometry    CO
 Framework group  C*V[C*(CO)]
 Deg. of freedom     1
 Full point group                 C*V     NOp   4
 Rotational constants (GHZ):           0.0000000          58.4485393          58.4485393
 Leave Link  202 at Sun Oct 19 17:35:54 2025, MaxMem=  4294967296 cpu:               0.0 elap:               0.0
 (Enter /home/andy/gdvj28p/gdv/l301.exe)
                         Coordinates in L301:                         
 ---------------------------------------------------------------------
 Center     Atomic      Atomic             Coordinates (Angstroms)
 Number     Number       Type             X           Y           Z
 ---------------------------------------------------------------------
      1          6           0        0.000000    0.000000   -0.561500
      2          8           0        0.000000    0.000000    0.561500
 ---------------------------------------------------------------------
 Standard basis: CC-pVTZ (5D, 7F)
 AtmSel:  Line="C O 0"
 AtmSel:  NamVal=GCentL NAtLst=     2 NIVal=     0 NNoVal=     0:
 AtmSel:  IAtLst=      1      2
 Centers:       1      2
 s 1 1.00
     Exponent=  2.5600000000D-02 Coefficients=  1.0000000000D+00
 s 1 1.00
     Exponent=  1.2800000000D-02 Coefficients=  1.0000000000D+00
 s 1 1.00
     Exponent=  6.4000000000D-03 Coefficients=  1.0000000000D+00
 p 1 1.00
     Exponent=  2.5600000000D-02 Coefficients=  1.0000000000D+00
 p 1 1.00
     Exponent=  1.2800000000D-02 Coefficients=  1.0000000000D+00
 d 1 1.00
     Exponent=  5.1200000000D-02 Coefficients=  1.0000000000D+00
 d 1 1.00
     Exponent=  2.5600000000D-02 Coefficients=  1.0000000000D+00
 d 1 1.00
     Exponent=  1.2800000000D-02 Coefficients=  1.0000000000D+00
 f 1 1.00
     Exponent=  2.5600000000D-02 Coefficients=  1.0000000000D+00
 ****
 FixB: optimizing general contractions.
 Ernie: Thresh=  0.10000D-02 Tol=  0.10000D-05 Strict=F.
 IA=     1 ShT= 0 ShC= 0 NL=   7 NS=   5.
 IA=     1 L=0 SC=0 ISt=    1 NBk=    2 NP=    8 IndPr=    0.
 DoElim1:  L=0 select primitive    2 from    2 using    1 C= 4.11D-03
 DoElim2:  L=0 select primitive    8 from    1 using    2 C= 5.97D-01
 Delete L=0 primitive    2 from    2 C=  5.67D-20.
 Delete L=0 primitive    1 from    2 C=  4.90D-07.
 Delete L=0 primitive    8 from    1 C=  1.83D-19.
 IA=     1 L=0 SC=0 ISt=    0 NBk=    0 NP=    0 IndPr=   13.
 IA=     1 ShT= 1 ShC= 1 NL=   5 NS=   4.
 IA=     1 L=1 SC=1 ISt=    0 NBk=    0 NP=    0 IndPr=    0.
 IA=     1 ShT= 2 ShC= 2 NL=   5 NS=   5.
 IA=     1 L=2 SC=2 ISt=    0 NBk=    0 NP=    0 IndPr=    0.
 IA=     1 ShT= 3 ShC= 3 NL=   2 NS=   2.
 IA=     1 L=3 SC=3 ISt=    0 NBk=    0 NP=    0 IndPr=    0.
 IA=     2 ShT= 0 ShC= 0 NL=   7 NS=   5.
 IA=     2 L=0 SC=0 ISt=    1 NBk=    2 NP=    8 IndPr=    0.
 DoElim1:  L=0 select primitive    2 from    2 using    1 C= 3.93D-03
 DoElim2:  L=0 select primitive    8 from    1 using    2 C= 6.02D-01
 Delete L=0 primitive    2 from    2 C=  2.79D-21.
 Delete L=0 primitive    1 from    2 C=  7.19D-07.
 Delete L=0 primitive    8 from    1 C=  5.09D-19.
 IA=     2 L=0 SC=0 ISt=    0 NBk=    0 NP=    0 IndPr=   13.
 IA=     2 ShT= 1 ShC= 1 NL=   5 NS=   4.
 IA=     2 L=1 SC=1 ISt=    0 NBk=    0 NP=    0 IndPr=    0.
 IA=     2 ShT= 2 ShC= 2 NL=   5 NS=   5.
 IA=     2 L=2 SC=2 ISt=    0 NBk=    0 NP=    0 IndPr=    0.
 IA=     2 ShT= 3 ShC= 3 NL=   2 NS=   2.
 IA=     2 L=3 SC=3 ISt=    0 NBk=    0 NP=    0 IndPr=    0.
 Ernie:  6 primitive shells out of 70 were deleted.
   122 AO functions
 AO basis set (Overlap normalization):
 Atom C1       Shell     1 S   7     bf    1 -     1          0.000000000000          0.000000000000         -1.061081218943
      0.8236000000D+04  0.5419783203D-03
      0.1235000000D+04  0.4192873817D-02
      0.2808000000D+03  0.2152216205D-01
      0.7927000000D+02  0.8353432195D-01
      0.2559000000D+02  0.2395828457D+00
      0.8997000000D+01  0.4428528419D+00
      0.3319000000D+01  0.3517995618D+00
 Atom C1       Shell     2 S   6     bf    2 -     2          0.000000000000          0.000000000000         -1.061081218943
      0.2808000000D+03 -0.5949224937D-04
      0.7927000000D+02 -0.1148158310D-02
      0.2559000000D+02 -0.1001913745D-01
      0.8997000000D+01 -0.6121949230D-01
      0.3319000000D+01 -0.1732698541D+00
      0.3643000000D+00  0.1072915192D+01
 Atom C1       Shell     3 S   1     bf    3 -     3          0.000000000000          0.000000000000         -1.061081218943
      0.9059000000D+00  0.1000000000D+01
 Atom C1       Shell     4 S   1     bf    4 -     4          0.000000000000          0.000000000000         -1.061081218943
      0.1285000000D+00  0.1000000000D+01
 Atom C1       Shell     5 S   1     bf    5 -     5          0.000000000000          0.000000000000         -1.061081218943
      0.2560000000D-01  0.1000000000D+01
 Atom C1       Shell     6 S   1     bf    6 -     6          0.000000000000          0.000000000000         -1.061081218943
      0.1280000000D-01  0.1000000000D+01
 Atom C1       Shell     7 S   1     bf    7 -     7          0.000000000000          0.000000000000         -1.061081218943
      0.6400000000D-02  0.1000000000D+01
 Atom C1       Shell     8 P   3     bf    8 -    10          0.000000000000          0.000000000000         -1.061081218943
      0.1871000000D+02  0.3942638716D-01
      0.4133000000D+01  0.2440889849D+00
      0.1200000000D+01  0.8154920089D+00
 Atom C1       Shell     9 P   1     bf   11 -    13          0.000000000000          0.000000000000         -1.061081218943
      0.3827000000D+00  0.1000000000D+01
 Atom C1       Shell    10 P   1     bf   14 -    16          0.000000000000          0.000000000000         -1.061081218943
      0.1209000000D+00  0.1000000000D+01
 Atom C1       Shell    11 P   1     bf   17 -    19          0.000000000000          0.000000000000         -1.061081218943
      0.2560000000D-01  0.1000000000D+01
 Atom C1       Shell    12 P   1     bf   20 -    22          0.000000000000          0.000000000000         -1.061081218943
      0.1280000000D-01  0.1000000000D+01
 Atom C1       Shell    13 D   1     bf   23 -    27          0.000000000000          0.000000000000         -1.061081218943
      0.1097000000D+01  0.1000000000D+01
 Atom C1       Shell    14 D   1     bf   28 -    32          0.000000000000          0.000000000000         -1.061081218943
      0.3180000000D+00  0.1000000000D+01
 Atom C1       Shell    15 D   1     bf   33 -    37          0.000000000000          0.000000000000         -1.061081218943
      0.5120000000D-01  0.1000000000D+01
 Atom C1       Shell    16 D   1     bf   38 -    42          0.000000000000          0.000000000000         -1.061081218943
      0.2560000000D-01  0.1000000000D+01
 Atom C1       Shell    17 D   1     bf   43 -    47          0.000000000000          0.000000000000         -1.061081218943
      0.1280000000D-01  0.1000000000D+01
 Atom C1       Shell    18 F   1     bf   48 -    54          0.000000000000          0.000000000000         -1.061081218943
      0.7610000000D+00  0.1000000000D+01
 Atom C1       Shell    19 F   1     bf   55 -    61          0.000000000000          0.000000000000         -1.061081218943
      0.2560000000D-01  0.1000000000D+01
 Atom O2       Shell    20 S   7     bf   62 -    62          0.000000000000          0.000000000000          1.061081218943
      0.1533000000D+05  0.5198089434D-03
      0.2299000000D+04  0.4020256215D-02
      0.5224000000D+03  0.2071282673D-01
      0.1473000000D+03  0.8101055358D-01
      0.4755000000D+02  0.2359629851D+00
      0.1676000000D+02  0.4426534455D+00
      0.6207000000D+01  0.3570644227D+00
 Atom O2       Shell    21 S   6     bf   63 -    63          0.000000000000          0.000000000000          1.061081218943
      0.5224000000D+03 -0.4421150084D-04
      0.1473000000D+03 -0.1225910413D-02
      0.4755000000D+02 -0.1055177248D-01
      0.1676000000D+02 -0.6744526326D-01
      0.6207000000D+01 -0.1711986073D+00
      0.6882000000D+00  0.1073298561D+01
 Atom O2       Shell    22 S   1     bf   64 -    64          0.000000000000          0.000000000000          1.061081218943
      0.1752000000D+01  0.1000000000D+01
 Atom O2       Shell    23 S   1     bf   65 -    65          0.000000000000          0.000000000000          1.061081218943
      0.2384000000D+00  0.1000000000D+01
 Atom O2       Shell    24 S   1     bf   66 -    66          0.000000000000          0.000000000000          1.061081218943
      0.2560000000D-01  0.1000000000D+01
 Atom O2       Shell    25 S   1     bf   67 -    67          0.000000000000          0.000000000000          1.061081218943
      0.1280000000D-01  0.1000000000D+01
 Atom O2       Shell    26 S   1     bf   68 -    68          0.000000000000          0.000000000000          1.061081218943
      0.6400000000D-02  0.1000000000D+01
 Atom O2       Shell    27 P   3     bf   69 -    71          0.000000000000          0.000000000000          1.061081218943
      0.3446000000D+02  0.4116348957D-01
      0.7749000000D+01  0.2577628359D+00
      0.2280000000D+01  0.8024192744D+00
 Atom O2       Shell    28 P   1     bf   72 -    74          0.000000000000          0.000000000000          1.061081218943
      0.7156000000D+00  0.1000000000D+01
 Atom O2       Shell    29 P   1     bf   75 -    77          0.000000000000          0.000000000000          1.061081218943
      0.2140000000D+00  0.1000000000D+01
 Atom O2       Shell    30 P   1     bf   78 -    80          0.000000000000          0.000000000000          1.061081218943
      0.2560000000D-01  0.1000000000D+01
 Atom O2       Shell    31 P   1     bf   81 -    83          0.000000000000          0.000000000000          1.061081218943
      0.1280000000D-01  0.1000000000D+01
 Atom O2       Shell    32 D   1     bf   84 -    88          0.000000000000          0.000000000000          1.061081218943
      0.2314000000D+01  0.1000000000D+01
 Atom O2       Shell    33 D   1     bf   89 -    93          0.000000000000          0.000000000000          1.061081218943
      0.6450000000D+00  0.1000000000D+01
 Atom O2       Shell    34 D   1     bf   94 -    98          0.000000000000          0.000000000000          1.061081218943
      0.5120000000D-01  0.1000000000D+01
 Atom O2       Shell    35 D   1     bf   99 -   103          0.000000000000          0.000000000000          1.061081218943
      0.2560000000D-01  0.1000000000D+01
 Atom O2       Shell    36 D   1     bf  104 -   108          0.000000000000          0.000000000000          1.061081218943
      0.1280000000D-01  0.1000000000D+01
 Atom O2       Shell    37 F   1     bf  109 -   115          0.000000000000          0.000000000000          1.061081218943
      0.1428000000D+01  0.1000000000D+01
 Atom O2       Shell    38 F   1     bf  116 -   122          0.000000000000          0.000000000000          1.061081218943
      0.2560000000D-01  0.1000000000D+01
 LdAtmC:  AtmChg=     6.000000     8.000000
 GetPMM: IRwPM=    824 LRwPM=      0 LPMAll=      2
 AtZEff=     -3.6000000     -5.6000000
   122 basis functions,   178 primitive gaussians,   144 cartesian basis functions
     7 alpha electrons        7 beta electrons
       nuclear repulsion energy        22.6184382228 Hartrees.
 IS=     1 IAt=     1 ISR=     1 T=0 IP=      1 IndIP=      1 IndIPD=      0 C=  3.339483D-01  0.000000D+00                             NZ=T
 IS=     1 IAt=     1 ISR=     1 T=0 IP=      2 IndIP=      2 IndIPD=      1 C=  6.225469D-01  0.000000D+00                             NZ=T
 IS=     1 IAt=     1 ISR=     1 T=0 IP=      3 IndIP=      3 IndIPD=      2 C=  1.052189D+00  0.000000D+00                             NZ=T
 IS=     1 IAt=     1 ISR=     1 T=0 IP=      4 IndIP=      4 IndIPD=      3 C=  1.581637D+00  0.000000D+00                             NZ=T
 IS=     1 IAt=     1 ISR=     1 T=0 IP=      5 IndIP=      5 IndIPD=      4 C=  1.942757D+00  0.000000D+00                             NZ=T
 IS=     1 IAt=     1 ISR=     1 T=0 IP=      6 IndIP=      6 IndIPD=      5 C=  1.639619D+00  0.000000D+00                             NZ=T
 IS=     1 IAt=     1 ISR=     1 T=0 IP=      7 IndIP=      7 IndIPD=      6 C=  6.165394D-01  0.000000D+00                             NZ=T
 IS=     2 IAt=     1 ISR=     2 T=0 IP=      1 IndIP=      8 IndIPD=      0 C= -2.908495D-03  0.000000D+00                             NZ=T
 IS=     2 IAt=     1 ISR=     2 T=0 IP=      2 IndIP=      9 IndIPD=      1 C= -2.173920D-02  0.000000D+00                             NZ=T
 IS=     2 IAt=     1 ISR=     2 T=0 IP=      3 IndIP=     10 IndIPD=      2 C= -8.124434D-02  0.000000D+00                             NZ=T
 IS=     2 IAt=     1 ISR=     2 T=0 IP=      4 IndIP=     11 IndIPD=      3 C= -2.266591D-01  0.000000D+00                             NZ=T
 IS=     2 IAt=     1 ISR=     2 T=0 IP=      5 IndIP=     12 IndIPD=      4 C= -3.036607D-01  0.000000D+00                             NZ=T
 IS=     2 IAt=     1 ISR=     2 T=0 IP=      6 IndIP=     13 IndIPD=      5 C=  3.585666D-01  0.000000D+00                             NZ=T
 IS=     3 IAt=     1 ISR=     3 T=0 IP=      1 IndIP=     14 IndIPD=      0 C=  6.617901D-01  0.000000D+00                             NZ=T
 IS=     4 IAt=     1 ISR=     4 T=0 IP=      1 IndIP=     15 IndIPD=      0 C=  1.529634D-01  0.000000D+00                             NZ=T
 IS=     5 IAt=     1 ISR=     5 T=0 IP=      1 IndIP=     16 IndIPD=      0 C=  4.561315D-02  0.000000D+00                             NZ=T
 IS=     6 IAt=     1 ISR=     6 T=0 IP=      1 IndIP=     17 IndIPD=      0 C=  2.712174D-02  0.000000D+00                             NZ=T
 IS=     7 IAt=     1 ISR=     7 T=0 IP=      1 IndIP=     18 IndIPD=      0 C=  1.612668D-02  0.000000D+00                             NZ=T
 IS=     8 IAt=     1 ISR=     8 T=1 IP=      1 IndIP=     19 IndIPD=      0 C=  0.000000D+00  2.186852D+00                             NZ=T
 IS=     8 IAt=     1 ISR=     8 T=1 IP=      2 IndIP=     20 IndIPD=      1 C=  0.000000D+00  2.050312D+00                             NZ=T
 IS=     8 IAt=     1 ISR=     8 T=1 IP=      3 IndIP=     21 IndIPD=      2 C=  0.000000D+00  1.459945D+00                             NZ=T
 IS=     9 IAt=     1 ISR=     9 T=1 IP=      1 IndIP=     22 IndIPD=      0 C=  0.000000D+00  4.290552D-01                             NZ=T
 IS=    10 IAt=     1 ISR=    10 T=1 IP=      1 IndIP=     23 IndIPD=      0 C=  0.000000D+00  1.016185D-01                             NZ=T
 IS=    11 IAt=     1 ISR=    11 T=1 IP=      1 IndIP=     24 IndIPD=      0 C=  0.000000D+00  1.459621D-02                             NZ=T
 IS=    12 IAt=     1 ISR=    12 T=1 IP=      1 IndIP=     25 IndIPD=      0 C=  0.000000D+00  6.136950D-03                             NZ=T
 IS=    13 IAt=     1 ISR=    13 T=2 IP=      1 IndIP=     26 IndIPD=      1 C=  0.000000D+00  0.000000D+00  1.935401D+00  0.000000D+00 NZ=T
 IS=    14 IAt=     1 ISR=    14 T=2 IP=      1 IndIP=     27 IndIPD=      2 C=  0.000000D+00  0.000000D+00  2.216445D-01  0.000000D+00 NZ=T
 IS=    15 IAt=     1 ISR=    15 T=2 IP=      1 IndIP=     28 IndIPD=      3 C=  0.000000D+00  0.000000D+00  9.070514D-03  0.000000D+00 NZ=T
 IS=    16 IAt=     1 ISR=    16 T=2 IP=      1 IndIP=     29 IndIPD=      4 C=  0.000000D+00  0.000000D+00  2.696680D-03  0.000000D+00 NZ=T
 IS=    17 IAt=     1 ISR=    17 T=2 IP=      1 IndIP=     30 IndIPD=      5 C=  0.000000D+00  0.000000D+00  8.017277D-04  0.000000D+00 NZ=T
 IS=    18 IAt=     1 ISR=    18 T=3 IP=      1 IndIP=     31 IndIPD=      6 C=  0.000000D+00  0.000000D+00  0.000000D+00  7.962876D-01 NZ=T
 IS=    19 IAt=     1 ISR=    19 T=3 IP=      1 IndIP=     32 IndIPD=      7 C=  0.000000D+00  0.000000D+00  0.000000D+00  3.859174D-04 NZ=T
 IS=    20 IAt=     2 ISR=     1 T=0 IP=      1 IndIP=     33 IndIPD=      0 C=  5.103998D-01  0.000000D+00                             NZ=T
 IS=    20 IAt=     2 ISR=     1 T=0 IP=      2 IndIP=     34 IndIPD=      1 C=  9.513012D-01  0.000000D+00                             NZ=T
 IS=    20 IAt=     2 ISR=     1 T=0 IP=      3 IndIP=     35 IndIPD=      2 C=  1.613065D+00  0.000000D+00                             NZ=T
 IS=    20 IAt=     2 ISR=     1 T=0 IP=      4 IndIP=     36 IndIPD=      3 C=  2.441202D+00  0.000000D+00                             NZ=T
 IS=    20 IAt=     2 ISR=     1 T=0 IP=      5 IndIP=     37 IndIPD=      4 C=  3.045207D+00  0.000000D+00                             NZ=T
 IS=    20 IAt=     2 ISR=     1 T=0 IP=      6 IndIP=     38 IndIPD=      5 C=  2.613241D+00  0.000000D+00                             NZ=T
 IS=    20 IAt=     2 ISR=     1 T=0 IP=      7 IndIP=     39 IndIPD=      6 C=  1.000732D+00  0.000000D+00                             NZ=T
 IS=    21 IAt=     2 ISR=     2 T=0 IP=      1 IndIP=     40 IndIPD=      0 C= -3.443085D-03  0.000000D+00                             NZ=T
 IS=    21 IAt=     2 ISR=     2 T=0 IP=      2 IndIP=     41 IndIPD=      1 C= -3.694204D-02  0.000000D+00                             NZ=T
 IS=    21 IAt=     2 ISR=     2 T=0 IP=      3 IndIP=     42 IndIPD=      2 C= -1.361753D-01  0.000000D+00                             NZ=T
 IS=    21 IAt=     2 ISR=     2 T=0 IP=      4 IndIP=     43 IndIPD=      3 C= -3.981686D-01  0.000000D+00                             NZ=T
 IS=    21 IAt=     2 ISR=     2 T=0 IP=      5 IndIP=     44 IndIPD=      4 C= -4.798126D-01  0.000000D+00                             NZ=T
 IS=    21 IAt=     2 ISR=     2 T=0 IP=      6 IndIP=     45 IndIPD=      5 C=  5.779851D-01  0.000000D+00                             NZ=T
 IS=    22 IAt=     2 ISR=     3 T=0 IP=      1 IndIP=     46 IndIPD=      0 C=  1.085327D+00  0.000000D+00                             NZ=T
 IS=    23 IAt=     2 ISR=     4 T=0 IP=      1 IndIP=     47 IndIPD=      0 C=  2.431587D-01  0.000000D+00                             NZ=T
 IS=    24 IAt=     2 ISR=     5 T=0 IP=      1 IndIP=     48 IndIPD=      0 C=  4.561315D-02  0.000000D+00                             NZ=T
 IS=    25 IAt=     2 ISR=     6 T=0 IP=      1 IndIP=     49 IndIPD=      0 C=  2.712174D-02  0.000000D+00                             NZ=T
 IS=    26 IAt=     2 ISR=     7 T=0 IP=      1 IndIP=     50 IndIPD=      0 C=  1.612668D-02  0.000000D+00                             NZ=T
 IS=    27 IAt=     2 ISR=     8 T=1 IP=      1 IndIP=     51 IndIPD=      0 C=  0.000000D+00  4.898875D+00                             NZ=T
 IS=    27 IAt=     2 ISR=     8 T=1 IP=      2 IndIP=     52 IndIPD=      1 C=  0.000000D+00  4.750261D+00                             NZ=T
 IS=    27 IAt=     2 ISR=     8 T=1 IP=      3 IndIP=     53 IndIPD=      2 C=  0.000000D+00  3.204498D+00                             NZ=T
 IS=    28 IAt=     2 ISR=     9 T=1 IP=      1 IndIP=     54 IndIPD=      0 C=  0.000000D+00  9.381624D-01                             NZ=T
 IS=    29 IAt=     2 ISR=    10 T=1 IP=      1 IndIP=     55 IndIPD=      0 C=  0.000000D+00  2.074710D-01                             NZ=T
 IS=    30 IAt=     2 ISR=    11 T=1 IP=      1 IndIP=     56 IndIPD=      0 C=  0.000000D+00  1.459621D-02                             NZ=T
 IS=    31 IAt=     2 ISR=    12 T=1 IP=      1 IndIP=     57 IndIPD=      0 C=  0.000000D+00  6.136950D-03                             NZ=T
 IS=    32 IAt=     2 ISR=    13 T=2 IP=      1 IndIP=     58 IndIPD=      8 C=  0.000000D+00  0.000000D+00  7.145709D+00  0.000000D+00 NZ=T
 IS=    33 IAt=     2 ISR=    14 T=2 IP=      1 IndIP=     59 IndIPD=      9 C=  0.000000D+00  0.000000D+00  7.640802D-01  0.000000D+00 NZ=T
 IS=    34 IAt=     2 ISR=    15 T=2 IP=      1 IndIP=     60 IndIPD=     10 C=  0.000000D+00  0.000000D+00  9.070514D-03  0.000000D+00 NZ=T
 IS=    35 IAt=     2 ISR=    16 T=2 IP=      1 IndIP=     61 IndIPD=     11 C=  0.000000D+00  0.000000D+00  2.696680D-03  0.000000D+00 NZ=T
 IS=    36 IAt=     2 ISR=    17 T=2 IP=      1 IndIP=     62 IndIPD=     12 C=  0.000000D+00  0.000000D+00  8.017277D-04  0.000000D+00 NZ=T
 IS=    37 IAt=     2 ISR=    18 T=3 IP=      1 IndIP=     63 IndIPD=     13 C=  0.000000D+00  0.000000D+00  0.000000D+00  3.281655D+00 NZ=T
 IS=    38 IAt=     2 ISR=    19 T=3 IP=      1 IndIP=     64 IndIPD=     14 C=  0.000000D+00  0.000000D+00  0.000000D+00  3.859174D-04 NZ=T
 IExCor=         0 DFT=F Ex=HF Corr=None N6=None ScaHFX=  1.000000
 ScaDFX=  1.000000  1.000000  1.000000  1.000000  1.000000  0.000000
 ScaDFX=  0.000000  0.000000  0.000000  0.000000  0.000000  0.000000
 Grid=UltraFine IRanWt=     -1 IRanGd=            0 ICorTp=0 IEDCtl=  2004
 NAtoms=    2 NActive=    2 NUniq=    2 SFac= 1.00D+00 NAtFMM=   60 NAOKFM=F Big=F
 Integral buffers will be    131072 words long.
 Raffenetti 2 integral format.
 Two-electron integral symmetry is turned off.
 Leave Link  301 at Sun Oct 19 17:35:54 2025, MaxMem=  4294967296 cpu:               0.1 elap:               0.0
 (Enter /home/andy/gdvj28p/gdv/l302.exe)
 GetPMM: IRwPM=    824 LRwPM=      0 LPMAll=      2
 NPDir=0 NMtPBC=     1 NCelOv=     1 NCel=       1 NClECP=     1 NCelD=      1
         NCelK=      1 NCelE2=     1 NClLst=     1 CellRange=     0.0.
 One-electron integrals computed using PRISM.
 Entering OneElI...
 Calculate overlap and kinetic energy integrals
    NBasis = 122  MinDer = 0  MaxDer = 0
 Requested accuracy = 0.1000D-12
 PrmmSu-InSpLW:  IPartL=    0 NPrtUS=   12 NPrtUL=    1 DoSpLW=F IThBeg=    0 IThEnd=   11 NThAct=   12.
 PrSmSu:  IncTry=   512 NBBP=            741 NTPThr=   100 NPartT=   12 Incr=           1 LDynOK=F GPUOK=F.
 PrsmSu:  NPrtUS=  12 ThrOK=T IAlg=1 LenDen=           0 ISkipM=0 DoSpLW=F IThBeg=    0 IThEnd=   11.
 Prism:   IPart=     0 DynPar=F LinDyn=F Incr=           1.
 PRISM was handed   357871726 working-precision words and   741 shell-pairs
 PRISM was handed   357871726 working-precision words and   741 shell-pairs
 PRISM was handed   357871726 working-precision words and   741 shell-pairs
 PRISM was handed   357871726 working-precision words and   741 shell-pairs
 PRISM was handed   357871726 working-precision words and   741 shell-pairs
 PRISM was handed   357871726 working-precision words and   741 shell-pairs
 PRISM was handed   357871726 working-precision words and   741 shell-pairs
 PRISM was handed   357871726 working-precision words and   741 shell-pairs
 PRISM was handed   357871726 working-precision words and   741 shell-pairs
 PRISM was handed   357871726 working-precision words and   741 shell-pairs
 PRISM was handed   357871726 working-precision words and   741 shell-pairs
 PRISM was handed   357871726 working-precision words and   741 shell-pairs
 PrSmSu:  NxtVal=             13.
 *** Overlap *** 
                1             2             3             4             5 
      1  0.100000D+01
      2  0.103339D+00  0.100000D+01
      3  0.516997D+00  0.765042D+00  0.100000D+01
      4  0.147493D+00  0.834862D+00  0.535796D+00  0.100000D+01
      5  0.454027D-01  0.359171D+00  0.186965D+00  0.642241D+00  0.100000D+01
      6  0.271056D-01  0.224939D+00  0.113502D+00  0.434927D+00  0.915452D+00
      7  0.161497D-01  0.137352D+00  0.681999D-01  0.277229D+00  0.715542D+00
      8  0.000000D+00  0.000000D+00  0.000000D+00  0.000000D+00  0.000000D+00
      9  0.000000D+00  0.000000D+00  0.000000D+00  0.000000D+00  0.000000D+00
     10  0.000000D+00  0.000000D+00  0.000000D+00  0.000000D+00  0.000000D+00
     11  0.000000D+00  0.000000D+00  0.000000D+00  0.000000D+00  0.000000D+00
     12  0.000000D+00  0.000000D+00  0.000000D+00  0.000000D+00  0.000000D+00
     13  0.000000D+00  0.000000D+00  0.000000D+00  0.000000D+00  0.000000D+00
     14  0.000000D+00  0.000000D+00  0.000000D+00  0.000000D+00  0.000000D+00
     15  0.000000D+00  0.000000D+00  0.000000D+00  0.000000D+00  0.000000D+00
     16  0.000000D+00  0.000000D+00  0.000000D+00  0.000000D+00  0.000000D+00
     17  0.000000D+00  0.000000D+00  0.000000D+00  0.000000D+00  0.000000D+00
     18  0.000000D+00  0.000000D+00  0.000000D+00  0.000000D+00  0.000000D+00
     19  0.000000D+00  0.000000D+00  0.000000D+00  0.000000D+00  0.000000D+00
     20  0.000000D+00  0.000000D+00  0.000000D+00  0.000000D+00  0.000000D+00
     21  0.000000D+00  0.000000D+00  0.000000D+00  0.000000D+00  0.000000D+00
     22  0.000000D+00  0.000000D+00  0.000000D+00  0.000000D+00  0.000000D+00
     23  0.000000D+00  0.000000D+00  0.000000D+00  0.000000D+00  0.000000D+00
     24  0.000000D+00  0.000000D+00  0.000000D+00  0.000000D+00  0.000000D+00
     25  0.000000D+00  0.000000D+00  0.000000D+00  0.000000D+00  0.000000D+00
     26  0.000000D+00  0.000000D+00  0.000000D+00  0.000000D+00  0.000000D+00
     27  0.000000D+00  0.000000D+00  0.000000D+00  0.000000D+00  0.000000D+00
     28  0.000000D+00  0.000000D+00  0.000000D+00  0.000000D+00  0.000000D+00
     29  0.000000D+00  0.000000D+00  0.000000D+00  0.000000D+00  0.000000D+00
     30  0.000000D+00  0.000000D+00  0.000000D+00  0.000000D+00  0.000000D+00
     31  0.000000D+00  0.000000D+00  0.000000D+00  0.000000D+00  0.000000D+00
     32  0.000000D+00  0.000000D+00  0.000000D+00  0.000000D+00  0.000000D+00
     33  0.000000D+00  0.000000D+00  0.000000D+00  0.000000D+00  0.000000D+00
     34  0.000000D+00  0.000000D+00  0.000000D+00  0.000000D+00  0.000000D+00
     35  0.000000D+00  0.000000D+00  0.000000D+00  0.000000D+00  0.000000D+00
     36  0.000000D+00  0.000000D+00  0.000000D+00  0.000000D+00  0.000000D+00
     37  0.000000D+00  0.000000D+00  0.000000D+00  0.000000D+00  0.000000D+00
     38  0.000000D+00  0.000000D+00  0.000000D+00  0.000000D+00  0.000000D+00
     39  0.000000D+00  0.000000D+00  0.000000D+00  0.000000D+00  0.000000D+00
     40  0.000000D+00  0.000000D+00  0.000000D+00  0.000000D+00  0.000000D+00
     41  0.000000D+00  0.000000D+00  0.000000D+00  0.000000D+00  0.000000D+00
     42  0.000000D+00  0.000000D+00  0.000000D+00  0.000000D+00  0.000000D+00
     43  0.000000D+00  0.000000D+00  0.000000D+00  0.000000D+00  0.000000D+00
     44  0.000000D+00  0.000000D+00  0.000000D+00  0.000000D+00  0.000000D+00
     45  0.000000D+00  0.000000D+00  0.000000D+00  0.000000D+00  0.000000D+00
     46  0.000000D+00  0.000000D+00  0.000000D+00  0.000000D+00  0.000000D+00
     47  0.000000D+00  0.000000D+00  0.000000D+00  0.000000D+00  0.000000D+00
     48  0.000000D+00  0.000000D+00  0.000000D+00  0.000000D+00  0.000000D+00
     49  0.000000D+00  0.000000D+00  0.000000D+00  0.000000D+00  0.000000D+00
     50  0.000000D+00  0.000000D+00  0.000000D+00  0.000000D+00  0.000000D+00
     51  0.000000D+00  0.000000D+00  0.000000D+00  0.000000D+00  0.000000D+00
     52  0.000000D+00  0.000000D+00  0.000000D+00  0.000000D+00  0.000000D+00
     53  0.000000D+00  0.000000D+00  0.000000D+00  0.000000D+00  0.000000D+00
     54  0.000000D+00  0.000000D+00  0.000000D+00  0.000000D+00  0.000000D+00
     55  0.000000D+00  0.000000D+00  0.000000D+00  0.000000D+00  0.000000D+00
     56  0.000000D+00  0.000000D+00  0.000000D+00  0.000000D+00  0.000000D+00
     57  0.000000D+00  0.000000D+00  0.000000D+00  0.000000D+00  0.000000D+00
     58  0.000000D+00  0.000000D+00  0.000000D+00  0.000000D+00  0.000000D+00
     59  0.000000D+00  0.000000D+00  0.000000D+00  0.000000D+00  0.000000D+00
     60  0.000000D+00  0.000000D+00  0.000000D+00  0.000000D+00  0.000000D+00
     61  0.000000D+00  0.000000D+00  0.000000D+00  0.000000D+00  0.000000D+00
     62  0.730126D-05  0.441428D-01  0.893376D-02  0.535226D-01  0.256074D-01
     63  0.314543D-01  0.340271D+00  0.178737D+00  0.392093D+00  0.209425D+00
     64  0.230382D-02  0.180001D+00  0.626999D-01  0.209077D+00  0.103819D+00
     65  0.815477D-01  0.515588D+00  0.312887D+00  0.639844D+00  0.410283D+00
     66  0.404836D-01  0.322582D+00  0.167135D+00  0.583372D+00  0.943984D+00
     67  0.255913D-01  0.212769D+00  0.107230D+00  0.412714D+00  0.880938D+00
     68  0.156915D-01  0.133518D+00  0.662756D-01  0.269722D+00  0.699231D+00
     69  0.000000D+00  0.000000D+00  0.000000D+00  0.000000D+00  0.000000D+00
     70  0.000000D+00  0.000000D+00  0.000000D+00  0.000000D+00  0.000000D+00
     71 -0.278514D-02 -0.112863D+00 -0.716491D-01 -0.514803D-01 -0.524319D-02
     72  0.000000D+00  0.000000D+00  0.000000D+00  0.000000D+00  0.000000D+00
     73  0.000000D+00  0.000000D+00  0.000000D+00  0.000000D+00  0.000000D+00
     74 -0.849240D-01 -0.374599D+00 -0.327979D+00 -0.203806D+00 -0.244868D-01
     75  0.000000D+00  0.000000D+00  0.000000D+00  0.000000D+00  0.000000D+00
     76  0.000000D+00  0.000000D+00  0.000000D+00  0.000000D+00  0.000000D+00
     77 -0.157426D+00 -0.635406D+00 -0.507852D+00 -0.488950D+00 -0.919079D-01
     78  0.000000D+00  0.000000D+00  0.000000D+00  0.000000D+00  0.000000D+00
     79  0.000000D+00  0.000000D+00  0.000000D+00  0.000000D+00  0.000000D+00
     80 -0.273446D-01 -0.204149D+00 -0.110381D+00 -0.330351D+00 -0.320526D+00
     81  0.000000D+00  0.000000D+00  0.000000D+00  0.000000D+00  0.000000D+00
     82  0.000000D+00  0.000000D+00  0.000000D+00  0.000000D+00  0.000000D+00
     83 -0.122556D-01 -0.985788D-01 -0.507734D-01 -0.180229D+00 -0.282012D+00
     84  0.756432D-02  0.625005D-01  0.865814D-01  0.114866D-01  0.243994D-03
     85  0.000000D+00  0.000000D+00  0.000000D+00  0.000000D+00  0.000000D+00
     86  0.000000D+00  0.000000D+00  0.000000D+00  0.000000D+00  0.000000D+00
     87  0.000000D+00  0.000000D+00  0.000000D+00  0.000000D+00  0.000000D+00
     88  0.000000D+00  0.000000D+00  0.000000D+00  0.000000D+00  0.000000D+00
     89  0.171037D+00  0.254897D+00  0.410560D+00  0.733882D-01  0.207591D-02
     90  0.000000D+00  0.000000D+00  0.000000D+00  0.000000D+00  0.000000D+00
     91  0.000000D+00  0.000000D+00  0.000000D+00  0.000000D+00  0.000000D+00
     92  0.000000D+00  0.000000D+00  0.000000D+00  0.000000D+00  0.000000D+00
     93  0.000000D+00  0.000000D+00  0.000000D+00  0.000000D+00  0.000000D+00
     94  0.314300D-01  0.181015D+00  0.115787D+00  0.198053D+00  0.501579D-01
     95  0.000000D+00  0.000000D+00  0.000000D+00  0.000000D+00  0.000000D+00
     96  0.000000D+00  0.000000D+00  0.000000D+00  0.000000D+00  0.000000D+00
     97  0.000000D+00  0.000000D+00  0.000000D+00  0.000000D+00  0.000000D+00
     98  0.000000D+00  0.000000D+00  0.000000D+00  0.000000D+00  0.000000D+00
     99  0.106637D-01  0.745798D-01  0.420880D-01  0.108005D+00  0.628350D-01
    100  0.000000D+00  0.000000D+00  0.000000D+00  0.000000D+00  0.000000D+00
    101  0.000000D+00  0.000000D+00  0.000000D+00  0.000000D+00  0.000000D+00
    102  0.000000D+00  0.000000D+00  0.000000D+00  0.000000D+00  0.000000D+00
    103  0.000000D+00  0.000000D+00  0.000000D+00  0.000000D+00  0.000000D+00
    104  0.338857D-02  0.263681D-01  0.138802D-01  0.454399D-01  0.521230D-01
    105  0.000000D+00  0.000000D+00  0.000000D+00  0.000000D+00  0.000000D+00
    106  0.000000D+00  0.000000D+00  0.000000D+00  0.000000D+00  0.000000D+00
    107  0.000000D+00  0.000000D+00  0.000000D+00  0.000000D+00  0.000000D+00
    108  0.000000D+00  0.000000D+00  0.000000D+00  0.000000D+00  0.000000D+00
    109 -0.662869D-01 -0.366205D-01 -0.156188D+00 -0.455196D-02 -0.221704D-04
    110  0.000000D+00  0.000000D+00  0.000000D+00  0.000000D+00  0.000000D+00
    111  0.000000D+00  0.000000D+00  0.000000D+00  0.000000D+00  0.000000D+00
    112  0.000000D+00  0.000000D+00  0.000000D+00  0.000000D+00  0.000000D+00
    113  0.000000D+00  0.000000D+00  0.000000D+00  0.000000D+00  0.000000D+00
    114  0.000000D+00  0.000000D+00  0.000000D+00  0.000000D+00  0.000000D+00
    115  0.000000D+00  0.000000D+00  0.000000D+00  0.000000D+00  0.000000D+00
    116 -0.322122D-02 -0.211004D-01 -0.124308D-01 -0.273519D-01 -0.954146D-02
    117  0.000000D+00  0.000000D+00  0.000000D+00  0.000000D+00  0.000000D+00
    118  0.000000D+00  0.000000D+00  0.000000D+00  0.000000D+00  0.000000D+00
    119  0.000000D+00  0.000000D+00  0.000000D+00  0.000000D+00  0.000000D+00
    120  0.000000D+00  0.000000D+00  0.000000D+00  0.000000D+00  0.000000D+00
    121  0.000000D+00  0.000000D+00  0.000000D+00  0.000000D+00  0.000000D+00
    122  0.000000D+00  0.000000D+00  0.000000D+00  0.000000D+00  0.000000D+00
                6             7             8             9            10 
      6  0.100000D+01
      7  0.915452D+00  0.100000D+01
      8  0.000000D+00  0.000000D+00  0.100000D+01
      9  0.000000D+00  0.000000D+00  0.000000D+00  0.100000D+01
     10  0.000000D+00  0.000000D+00  0.000000D+00  0.000000D+00  0.100000D+01
     11  0.000000D+00  0.000000D+00  0.611573D+00  0.000000D+00  0.000000D+00
     12  0.000000D+00  0.000000D+00  0.000000D+00  0.611573D+00  0.000000D+00
     13  0.000000D+00  0.000000D+00  0.000000D+00  0.000000D+00  0.611573D+00
     14  0.000000D+00  0.000000D+00  0.221927D+00  0.000000D+00  0.000000D+00
     15  0.000000D+00  0.000000D+00  0.000000D+00  0.221927D+00  0.000000D+00
     16  0.000000D+00  0.000000D+00  0.000000D+00  0.000000D+00  0.221927D+00
     17  0.000000D+00  0.000000D+00  0.380990D-01  0.000000D+00  0.000000D+00
     18  0.000000D+00  0.000000D+00  0.000000D+00  0.380990D-01  0.000000D+00
     19  0.000000D+00  0.000000D+00  0.000000D+00  0.000000D+00  0.380990D-01
     20  0.000000D+00  0.000000D+00  0.164253D-01  0.000000D+00  0.000000D+00
     21  0.000000D+00  0.000000D+00  0.000000D+00  0.164253D-01  0.000000D+00
     22  0.000000D+00  0.000000D+00  0.000000D+00  0.000000D+00  0.164253D-01
     23  0.000000D+00  0.000000D+00  0.000000D+00  0.000000D+00  0.000000D+00
     24  0.000000D+00  0.000000D+00  0.000000D+00  0.000000D+00  0.000000D+00
     25  0.000000D+00  0.000000D+00  0.000000D+00  0.000000D+00  0.000000D+00
     26  0.000000D+00  0.000000D+00  0.000000D+00  0.000000D+00  0.000000D+00
     27  0.000000D+00  0.000000D+00  0.000000D+00  0.000000D+00  0.000000D+00
     28  0.000000D+00  0.000000D+00  0.000000D+00  0.000000D+00  0.000000D+00
     29  0.000000D+00  0.000000D+00  0.000000D+00  0.000000D+00  0.000000D+00
     30  0.000000D+00  0.000000D+00  0.000000D+00  0.000000D+00  0.000000D+00
     31  0.000000D+00  0.000000D+00  0.000000D+00  0.000000D+00  0.000000D+00
     32  0.000000D+00  0.000000D+00  0.000000D+00  0.000000D+00  0.000000D+00
     33  0.000000D+00  0.000000D+00  0.000000D+00  0.000000D+00  0.000000D+00
     34  0.000000D+00  0.000000D+00  0.000000D+00  0.000000D+00  0.000000D+00
     35  0.000000D+00  0.000000D+00  0.000000D+00  0.000000D+00  0.000000D+00
     36  0.000000D+00  0.000000D+00  0.000000D+00  0.000000D+00  0.000000D+00
     37  0.000000D+00  0.000000D+00  0.000000D+00  0.000000D+00  0.000000D+00
     38  0.000000D+00  0.000000D+00  0.000000D+00  0.000000D+00  0.000000D+00
     39  0.000000D+00  0.000000D+00  0.000000D+00  0.000000D+00  0.000000D+00
     40  0.000000D+00  0.000000D+00  0.000000D+00  0.000000D+00  0.000000D+00
     41  0.000000D+00  0.000000D+00  0.000000D+00  0.000000D+00  0.000000D+00
     42  0.000000D+00  0.000000D+00  0.000000D+00  0.000000D+00  0.000000D+00
     43  0.000000D+00  0.000000D+00  0.000000D+00  0.000000D+00  0.000000D+00
     44  0.000000D+00  0.000000D+00  0.000000D+00  0.000000D+00  0.000000D+00
     45  0.000000D+00  0.000000D+00  0.000000D+00  0.000000D+00  0.000000D+00
     46  0.000000D+00  0.000000D+00  0.000000D+00  0.000000D+00  0.000000D+00
     47  0.000000D+00  0.000000D+00  0.000000D+00  0.000000D+00  0.000000D+00
     48  0.000000D+00  0.000000D+00  0.000000D+00  0.000000D+00  0.000000D+00
     49  0.000000D+00  0.000000D+00  0.000000D+00  0.000000D+00  0.000000D+00
     50  0.000000D+00  0.000000D+00  0.000000D+00  0.000000D+00  0.000000D+00
     51  0.000000D+00  0.000000D+00  0.000000D+00  0.000000D+00  0.000000D+00
     52  0.000000D+00  0.000000D+00  0.000000D+00  0.000000D+00  0.000000D+00
     53  0.000000D+00  0.000000D+00  0.000000D+00  0.000000D+00  0.000000D+00
     54  0.000000D+00  0.000000D+00  0.000000D+00  0.000000D+00  0.000000D+00
     55  0.000000D+00  0.000000D+00  0.000000D+00  0.000000D+00  0.000000D+00
     56  0.000000D+00  0.000000D+00  0.000000D+00  0.000000D+00  0.000000D+00
     57  0.000000D+00  0.000000D+00  0.000000D+00  0.000000D+00  0.000000D+00
     58  0.000000D+00  0.000000D+00  0.000000D+00  0.000000D+00  0.000000D+00
     59  0.000000D+00  0.000000D+00  0.000000D+00  0.000000D+00  0.000000D+00
     60  0.000000D+00  0.000000D+00  0.000000D+00  0.000000D+00  0.000000D+00
     61  0.000000D+00  0.000000D+00  0.000000D+00  0.000000D+00  0.000000D+00
     62  0.161608D-01  0.990042D-02  0.000000D+00  0.000000D+00  0.122132D-01
     63  0.135242D+00  0.838858D-01  0.000000D+00  0.000000D+00  0.204658D+00
     64  0.660247D-01  0.406146D-01  0.000000D+00  0.000000D+00  0.908192D-01
     65  0.276149D+00  0.175288D+00  0.000000D+00  0.000000D+00  0.177635D+00
     66  0.880938D+00  0.699231D+00  0.000000D+00  0.000000D+00  0.115542D-01
     67  0.971589D+00  0.898029D+00  0.000000D+00  0.000000D+00  0.372490D-02
     68  0.898029D+00  0.985692D+00  0.000000D+00  0.000000D+00  0.115380D-02
     69  0.000000D+00  0.000000D+00  0.177139D-01  0.000000D+00  0.000000D+00
     70  0.000000D+00  0.000000D+00  0.000000D+00  0.177139D-01  0.000000D+00
     71 -0.167181D-02 -0.514864D-03  0.000000D+00  0.000000D+00 -0.110940D+00
     72  0.000000D+00  0.000000D+00  0.106504D+00  0.000000D+00  0.000000D+00
     73  0.000000D+00  0.000000D+00  0.000000D+00  0.106504D+00  0.000000D+00
     74 -0.803136D-02 -0.251048D-02  0.000000D+00  0.000000D+00 -0.333524D+00
     75  0.000000D+00  0.000000D+00  0.168887D+00  0.000000D+00  0.000000D+00
     76  0.000000D+00  0.000000D+00  0.000000D+00  0.168887D+00  0.000000D+00
     77 -0.329047D-01 -0.107895D-01  0.000000D+00  0.000000D+00 -0.109831D+00
     78  0.000000D+00  0.000000D+00  0.340284D-01  0.000000D+00  0.000000D+00
     79  0.000000D+00  0.000000D+00  0.000000D+00  0.340284D-01  0.000000D+00
     80 -0.199413D+00 -0.949685D-01  0.000000D+00  0.000000D+00  0.263385D-01
     81  0.000000D+00  0.000000D+00  0.155143D-01  0.000000D+00  0.000000D+00
     82  0.000000D+00  0.000000D+00  0.000000D+00  0.155143D-01  0.000000D+00
     83 -0.233274D+00 -0.143742D+00  0.000000D+00  0.000000D+00  0.137436D-01
     84  0.391301D-04  0.604337D-05  0.000000D+00  0.000000D+00  0.140066D+00
     85  0.000000D+00  0.000000D+00 -0.459967D-01  0.000000D+00  0.000000D+00
     86  0.000000D+00  0.000000D+00  0.000000D+00 -0.459967D-01  0.000000D+00
     87  0.000000D+00  0.000000D+00  0.000000D+00  0.000000D+00  0.000000D+00
     88  0.000000D+00  0.000000D+00  0.000000D+00  0.000000D+00  0.000000D+00
     89  0.348564D-03  0.551397D-04  0.000000D+00  0.000000D+00  0.289899D+00
     90  0.000000D+00  0.000000D+00 -0.265896D+00  0.000000D+00  0.000000D+00
     91  0.000000D+00  0.000000D+00  0.000000D+00 -0.265896D+00  0.000000D+00
     92  0.000000D+00  0.000000D+00  0.000000D+00  0.000000D+00  0.000000D+00
     93  0.000000D+00  0.000000D+00  0.000000D+00  0.000000D+00  0.000000D+00
     94  0.145544D-01  0.319311D-02  0.000000D+00  0.000000D+00 -0.573296D-01
     95  0.000000D+00  0.000000D+00 -0.637829D-01  0.000000D+00  0.000000D+00
     96  0.000000D+00  0.000000D+00  0.000000D+00 -0.637829D-01  0.000000D+00
     97  0.000000D+00  0.000000D+00  0.000000D+00  0.000000D+00  0.000000D+00
     98  0.000000D+00  0.000000D+00  0.000000D+00  0.000000D+00  0.000000D+00
     99  0.260615D-01  0.744693D-02  0.000000D+00  0.000000D+00 -0.231962D-01
    100  0.000000D+00  0.000000D+00 -0.226475D-01  0.000000D+00  0.000000D+00
    101  0.000000D+00  0.000000D+00  0.000000D+00 -0.226475D-01  0.000000D+00
    102  0.000000D+00  0.000000D+00  0.000000D+00  0.000000D+00  0.000000D+00
    103  0.000000D+00  0.000000D+00  0.000000D+00  0.000000D+00  0.000000D+00
    104  0.323362D-01  0.132836D-01  0.000000D+00  0.000000D+00 -0.802960D-02
    105  0.000000D+00  0.000000D+00 -0.737467D-02  0.000000D+00  0.000000D+00
    106  0.000000D+00  0.000000D+00  0.000000D+00 -0.737467D-02  0.000000D+00
    107  0.000000D+00  0.000000D+00  0.000000D+00  0.000000D+00  0.000000D+00
    108  0.000000D+00  0.000000D+00  0.000000D+00  0.000000D+00  0.000000D+00
    109 -0.181373D-05  0.000000D+00  0.000000D+00  0.000000D+00 -0.206684D+00
    110  0.000000D+00  0.000000D+00  0.158779D+00  0.000000D+00  0.000000D+00
    111  0.000000D+00  0.000000D+00  0.000000D+00  0.158779D+00  0.000000D+00
    112  0.000000D+00  0.000000D+00  0.000000D+00  0.000000D+00  0.000000D+00
    113  0.000000D+00  0.000000D+00  0.000000D+00  0.000000D+00  0.000000D+00
    114  0.000000D+00  0.000000D+00  0.000000D+00  0.000000D+00  0.000000D+00
    115  0.000000D+00  0.000000D+00  0.000000D+00  0.000000D+00  0.000000D+00
    116 -0.263829D-02 -0.452325D-03  0.000000D+00  0.000000D+00  0.107961D-01
    117  0.000000D+00  0.000000D+00  0.953312D-02  0.000000D+00  0.000000D+00
    118  0.000000D+00  0.000000D+00  0.000000D+00  0.953312D-02  0.000000D+00
    119  0.000000D+00  0.000000D+00  0.000000D+00  0.000000D+00  0.000000D+00
    120  0.000000D+00  0.000000D+00  0.000000D+00  0.000000D+00  0.000000D+00
    121  0.000000D+00  0.000000D+00  0.000000D+00  0.000000D+00  0.000000D+00
    122  0.000000D+00  0.000000D+00  0.000000D+00  0.000000D+00  0.000000D+00
               11            12            13            14            15 
     11  0.100000D+01
     12  0.000000D+00  0.100000D+01
     13  0.000000D+00  0.000000D+00  0.100000D+01
     14  0.674476D+00  0.000000D+00  0.000000D+00  0.100000D+01
     15  0.000000D+00  0.674476D+00  0.000000D+00  0.000000D+00  0.100000D+01
     16  0.000000D+00  0.000000D+00  0.674476D+00  0.000000D+00  0.000000D+00
     17  0.163681D+00  0.000000D+00  0.000000D+00  0.502706D+00  0.000000D+00
     18  0.000000D+00  0.163681D+00  0.000000D+00  0.000000D+00  0.502706D+00
     19  0.000000D+00  0.000000D+00  0.163681D+00  0.000000D+00  0.000000D+00
     20  0.745237D-01  0.000000D+00  0.000000D+00  0.265639D+00  0.000000D+00
     21  0.000000D+00  0.745237D-01  0.000000D+00  0.000000D+00  0.265639D+00
     22  0.000000D+00  0.000000D+00  0.745237D-01  0.000000D+00  0.000000D+00
     23  0.000000D+00  0.000000D+00  0.000000D+00  0.000000D+00  0.000000D+00
     24  0.000000D+00  0.000000D+00  0.000000D+00  0.000000D+00  0.000000D+00
     25  0.000000D+00  0.000000D+00  0.000000D+00  0.000000D+00  0.000000D+00
     26  0.000000D+00  0.000000D+00  0.000000D+00  0.000000D+00  0.000000D+00
     27  0.000000D+00  0.000000D+00  0.000000D+00  0.000000D+00  0.000000D+00
     28  0.000000D+00  0.000000D+00  0.000000D+00  0.000000D+00  0.000000D+00
     29  0.000000D+00  0.000000D+00  0.000000D+00  0.000000D+00  0.000000D+00
     30  0.000000D+00  0.000000D+00  0.000000D+00  0.000000D+00  0.000000D+00
     31  0.000000D+00  0.000000D+00  0.000000D+00  0.000000D+00  0.000000D+00
     32  0.000000D+00  0.000000D+00  0.000000D+00  0.000000D+00  0.000000D+00
     33  0.000000D+00  0.000000D+00  0.000000D+00  0.000000D+00  0.000000D+00
     34  0.000000D+00  0.000000D+00  0.000000D+00  0.000000D+00  0.000000D+00
     35  0.000000D+00  0.000000D+00  0.000000D+00  0.000000D+00  0.000000D+00
     36  0.000000D+00  0.000000D+00  0.000000D+00  0.000000D+00  0.000000D+00
     37  0.000000D+00  0.000000D+00  0.000000D+00  0.000000D+00  0.000000D+00
     38  0.000000D+00  0.000000D+00  0.000000D+00  0.000000D+00  0.000000D+00
     39  0.000000D+00  0.000000D+00  0.000000D+00  0.000000D+00  0.000000D+00
     40  0.000000D+00  0.000000D+00  0.000000D+00  0.000000D+00  0.000000D+00
     41  0.000000D+00  0.000000D+00  0.000000D+00  0.000000D+00  0.000000D+00
     42  0.000000D+00  0.000000D+00  0.000000D+00  0.000000D+00  0.000000D+00
     43  0.000000D+00  0.000000D+00  0.000000D+00  0.000000D+00  0.000000D+00
     44  0.000000D+00  0.000000D+00  0.000000D+00  0.000000D+00  0.000000D+00
     45  0.000000D+00  0.000000D+00  0.000000D+00  0.000000D+00  0.000000D+00
     46  0.000000D+00  0.000000D+00  0.000000D+00  0.000000D+00  0.000000D+00
     47  0.000000D+00  0.000000D+00  0.000000D+00  0.000000D+00  0.000000D+00
     48  0.000000D+00  0.000000D+00  0.000000D+00  0.000000D+00  0.000000D+00
     49  0.000000D+00  0.000000D+00  0.000000D+00  0.000000D+00  0.000000D+00
     50  0.000000D+00  0.000000D+00  0.000000D+00  0.000000D+00  0.000000D+00
     51  0.000000D+00  0.000000D+00  0.000000D+00  0.000000D+00  0.000000D+00
     52  0.000000D+00  0.000000D+00  0.000000D+00  0.000000D+00  0.000000D+00
     53  0.000000D+00  0.000000D+00  0.000000D+00  0.000000D+00  0.000000D+00
     54  0.000000D+00  0.000000D+00  0.000000D+00  0.000000D+00  0.000000D+00
     55  0.000000D+00  0.000000D+00  0.000000D+00  0.000000D+00  0.000000D+00
     56  0.000000D+00  0.000000D+00  0.000000D+00  0.000000D+00  0.000000D+00
     57  0.000000D+00  0.000000D+00  0.000000D+00  0.000000D+00  0.000000D+00
     58  0.000000D+00  0.000000D+00  0.000000D+00  0.000000D+00  0.000000D+00
     59  0.000000D+00  0.000000D+00  0.000000D+00  0.000000D+00  0.000000D+00
     60  0.000000D+00  0.000000D+00  0.000000D+00  0.000000D+00  0.000000D+00
     61  0.000000D+00  0.000000D+00  0.000000D+00  0.000000D+00  0.000000D+00
     62  0.000000D+00  0.000000D+00  0.992753D-01  0.000000D+00  0.000000D+00
     63  0.000000D+00  0.000000D+00  0.529110D+00  0.000000D+00  0.000000D+00
     64  0.000000D+00  0.000000D+00  0.351921D+00  0.000000D+00  0.000000D+00
     65  0.000000D+00  0.000000D+00  0.498888D+00  0.000000D+00  0.000000D+00
     66  0.000000D+00  0.000000D+00  0.498847D-01  0.000000D+00  0.000000D+00
     67  0.000000D+00  0.000000D+00  0.169220D-01  0.000000D+00  0.000000D+00
     68  0.000000D+00  0.000000D+00  0.538613D-02  0.000000D+00  0.000000D+00
     69  0.816082D-01  0.000000D+00  0.000000D+00  0.651646D-01  0.000000D+00
     70  0.000000D+00  0.816082D-01  0.000000D+00  0.000000D+00  0.651646D-01
     71  0.000000D+00  0.000000D+00 -0.161275D+00  0.000000D+00  0.000000D+00
     72  0.288395D+00  0.000000D+00  0.000000D+00  0.260311D+00  0.000000D+00
     73  0.000000D+00  0.288395D+00  0.000000D+00  0.000000D+00  0.260311D+00
     74  0.000000D+00  0.000000D+00 -0.359318D+00  0.000000D+00  0.000000D+00
     75  0.485656D+00  0.000000D+00  0.000000D+00  0.638611D+00  0.000000D+00
     76  0.000000D+00  0.485656D+00  0.000000D+00  0.000000D+00  0.638611D+00
     77  0.000000D+00  0.000000D+00 -0.114732D+00  0.000000D+00  0.000000D+00
     78  0.146916D+00  0.000000D+00  0.000000D+00  0.457081D+00  0.000000D+00
     79  0.000000D+00  0.146916D+00  0.000000D+00  0.000000D+00  0.457081D+00
     80  0.000000D+00  0.000000D+00  0.115164D+00  0.000000D+00  0.000000D+00
     81  0.704806D-01  0.000000D+00  0.000000D+00  0.252147D+00  0.000000D+00
     82  0.000000D+00  0.704806D-01  0.000000D+00  0.000000D+00  0.252147D+00
     83  0.000000D+00  0.000000D+00  0.626177D-01  0.000000D+00  0.000000D+00
     84  0.000000D+00  0.000000D+00  0.469878D-01  0.000000D+00  0.000000D+00
     85 -0.849664D-01  0.000000D+00  0.000000D+00 -0.237723D-01  0.000000D+00
     86  0.000000D+00 -0.849664D-01  0.000000D+00  0.000000D+00 -0.237723D-01
     87  0.000000D+00  0.000000D+00  0.000000D+00  0.000000D+00  0.000000D+00
     88  0.000000D+00  0.000000D+00  0.000000D+00  0.000000D+00  0.000000D+00
     89  0.000000D+00  0.000000D+00  0.373211D-01  0.000000D+00  0.000000D+00
     90 -0.395579D+00  0.000000D+00  0.000000D+00 -0.154465D+00  0.000000D+00
     91  0.000000D+00 -0.395579D+00  0.000000D+00  0.000000D+00 -0.154465D+00
     92  0.000000D+00  0.000000D+00  0.000000D+00  0.000000D+00  0.000000D+00
     93  0.000000D+00  0.000000D+00  0.000000D+00  0.000000D+00  0.000000D+00
     94  0.000000D+00  0.000000D+00 -0.212605D+00  0.000000D+00  0.000000D+00
     95 -0.231126D+00  0.000000D+00  0.000000D+00 -0.458652D+00  0.000000D+00
     96  0.000000D+00 -0.231126D+00  0.000000D+00  0.000000D+00 -0.458652D+00
     97  0.000000D+00  0.000000D+00  0.000000D+00  0.000000D+00  0.000000D+00
     98  0.000000D+00  0.000000D+00  0.000000D+00  0.000000D+00  0.000000D+00
     99  0.000000D+00  0.000000D+00 -0.963119D-01  0.000000D+00  0.000000D+00
    100 -0.935139D-01  0.000000D+00  0.000000D+00 -0.256159D+00  0.000000D+00
    101  0.000000D+00 -0.935139D-01  0.000000D+00  0.000000D+00 -0.256159D+00
    102  0.000000D+00  0.000000D+00  0.000000D+00  0.000000D+00  0.000000D+00
    103  0.000000D+00  0.000000D+00  0.000000D+00  0.000000D+00  0.000000D+00
    104  0.000000D+00  0.000000D+00 -0.357057D-01  0.000000D+00  0.000000D+00
    105 -0.327488D-01  0.000000D+00  0.000000D+00 -0.109487D+00  0.000000D+00
    106  0.000000D+00 -0.327488D-01  0.000000D+00  0.000000D+00 -0.109487D+00
    107  0.000000D+00  0.000000D+00  0.000000D+00  0.000000D+00  0.000000D+00
    108  0.000000D+00  0.000000D+00  0.000000D+00  0.000000D+00  0.000000D+00
    109  0.000000D+00  0.000000D+00  0.129256D-01  0.000000D+00  0.000000D+00
    110  0.112468D+00  0.000000D+00  0.000000D+00  0.126512D-01  0.000000D+00
    111  0.000000D+00  0.112468D+00  0.000000D+00  0.000000D+00  0.126512D-01
    112  0.000000D+00  0.000000D+00  0.000000D+00  0.000000D+00  0.000000D+00
    113  0.000000D+00  0.000000D+00  0.000000D+00  0.000000D+00  0.000000D+00
    114  0.000000D+00  0.000000D+00  0.000000D+00  0.000000D+00  0.000000D+00
    115  0.000000D+00  0.000000D+00  0.000000D+00  0.000000D+00  0.000000D+00
    116  0.000000D+00  0.000000D+00  0.427846D-01  0.000000D+00  0.000000D+00
    117  0.376456D-01  0.000000D+00  0.000000D+00  0.907940D-01  0.000000D+00
    118  0.000000D+00  0.376456D-01  0.000000D+00  0.000000D+00  0.907940D-01
    119  0.000000D+00  0.000000D+00  0.000000D+00  0.000000D+00  0.000000D+00
    120  0.000000D+00  0.000000D+00  0.000000D+00  0.000000D+00  0.000000D+00
    121  0.000000D+00  0.000000D+00  0.000000D+00  0.000000D+00  0.000000D+00
    122  0.000000D+00  0.000000D+00  0.000000D+00  0.000000D+00  0.000000D+00
               16            17            18            19            20 
     16  0.100000D+01
     17  0.000000D+00  0.100000D+01
     18  0.000000D+00  0.000000D+00  0.100000D+01
     19  0.502706D+00  0.000000D+00  0.000000D+00  0.100000D+01
     20  0.000000D+00  0.863096D+00  0.000000D+00  0.000000D+00  0.100000D+01
     21  0.000000D+00  0.000000D+00  0.863096D+00  0.000000D+00  0.000000D+00
     22  0.265639D+00  0.000000D+00  0.000000D+00  0.863096D+00  0.000000D+00
     23  0.000000D+00  0.000000D+00  0.000000D+00  0.000000D+00  0.000000D+00
     24  0.000000D+00  0.000000D+00  0.000000D+00  0.000000D+00  0.000000D+00
     25  0.000000D+00  0.000000D+00  0.000000D+00  0.000000D+00  0.000000D+00
     26  0.000000D+00  0.000000D+00  0.000000D+00  0.000000D+00  0.000000D+00
     27  0.000000D+00  0.000000D+00  0.000000D+00  0.000000D+00  0.000000D+00
     28  0.000000D+00  0.000000D+00  0.000000D+00  0.000000D+00  0.000000D+00
     29  0.000000D+00  0.000000D+00  0.000000D+00  0.000000D+00  0.000000D+00
     30  0.000000D+00  0.000000D+00  0.000000D+00  0.000000D+00  0.000000D+00
     31  0.000000D+00  0.000000D+00  0.000000D+00  0.000000D+00  0.000000D+00
     32  0.000000D+00  0.000000D+00  0.000000D+00  0.000000D+00  0.000000D+00
     33  0.000000D+00  0.000000D+00  0.000000D+00  0.000000D+00  0.000000D+00
     34  0.000000D+00  0.000000D+00  0.000000D+00  0.000000D+00  0.000000D+00
     35  0.000000D+00  0.000000D+00  0.000000D+00  0.000000D+00  0.000000D+00
     36  0.000000D+00  0.000000D+00  0.000000D+00  0.000000D+00  0.000000D+00
     37  0.000000D+00  0.000000D+00  0.000000D+00  0.000000D+00  0.000000D+00
     38  0.000000D+00  0.000000D+00  0.000000D+00  0.000000D+00  0.000000D+00
     39  0.000000D+00  0.000000D+00  0.000000D+00  0.000000D+00  0.000000D+00
     40  0.000000D+00  0.000000D+00  0.000000D+00  0.000000D+00  0.000000D+00
     41  0.000000D+00  0.000000D+00  0.000000D+00  0.000000D+00  0.000000D+00
     42  0.000000D+00  0.000000D+00  0.000000D+00  0.000000D+00  0.000000D+00
     43  0.000000D+00  0.000000D+00  0.000000D+00  0.000000D+00  0.000000D+00
     44  0.000000D+00  0.000000D+00  0.000000D+00  0.000000D+00  0.000000D+00
     45  0.000000D+00  0.000000D+00  0.000000D+00  0.000000D+00  0.000000D+00
     46  0.000000D+00  0.000000D+00  0.000000D+00  0.000000D+00  0.000000D+00
     47  0.000000D+00  0.000000D+00  0.000000D+00  0.000000D+00  0.000000D+00
     48  0.000000D+00  0.000000D+00  0.000000D+00  0.000000D+00  0.000000D+00
     49  0.000000D+00  0.000000D+00  0.000000D+00  0.000000D+00  0.000000D+00
     50  0.000000D+00  0.000000D+00  0.000000D+00  0.000000D+00  0.000000D+00
     51  0.000000D+00  0.000000D+00  0.000000D+00  0.000000D+00  0.000000D+00
     52  0.000000D+00  0.000000D+00  0.000000D+00  0.000000D+00  0.000000D+00
     53  0.000000D+00  0.000000D+00  0.000000D+00  0.000000D+00  0.000000D+00
     54  0.000000D+00  0.000000D+00  0.000000D+00  0.000000D+00  0.000000D+00
     55  0.000000D+00  0.000000D+00  0.000000D+00  0.000000D+00  0.000000D+00
     56  0.000000D+00  0.000000D+00  0.000000D+00  0.000000D+00  0.000000D+00
     57  0.000000D+00  0.000000D+00  0.000000D+00  0.000000D+00  0.000000D+00
     58  0.000000D+00  0.000000D+00  0.000000D+00  0.000000D+00  0.000000D+00
     59  0.000000D+00  0.000000D+00  0.000000D+00  0.000000D+00  0.000000D+00
     60  0.000000D+00  0.000000D+00  0.000000D+00  0.000000D+00  0.000000D+00
     61  0.000000D+00  0.000000D+00  0.000000D+00  0.000000D+00  0.000000D+00
     62  0.770588D-01  0.000000D+00  0.000000D+00  0.173394D-01  0.000000D+00
     63  0.485369D+00  0.000000D+00  0.000000D+00  0.136935D+00  0.000000D+00
     64  0.285814D+00  0.000000D+00  0.000000D+00  0.694870D-01  0.000000D+00
     65  0.626804D+00  0.000000D+00  0.000000D+00  0.251602D+00  0.000000D+00
     66  0.155200D+00  0.000000D+00  0.000000D+00  0.320526D+00  0.000000D+00
     67  0.605392D-01  0.000000D+00  0.000000D+00  0.199413D+00  0.000000D+00
     68  0.208565D-01  0.000000D+00  0.000000D+00  0.949685D-01  0.000000D+00
     69  0.000000D+00  0.154418D-01  0.000000D+00  0.000000D+00  0.696311D-02
     70  0.000000D+00  0.000000D+00  0.154418D-01  0.000000D+00  0.000000D+00
     71 -0.240223D-02  0.000000D+00  0.000000D+00  0.119188D-01  0.000000D+00
     72  0.000000D+00  0.721163D-01  0.000000D+00  0.000000D+00  0.334507D-01
     73  0.000000D+00  0.000000D+00  0.721163D-01  0.000000D+00  0.000000D+00
     74  0.178117D-01  0.000000D+00  0.000000D+00  0.560618D-01  0.000000D+00
     75  0.000000D+00  0.270679D+00  0.000000D+00  0.000000D+00  0.137049D+00
     76  0.000000D+00  0.000000D+00  0.270679D+00  0.000000D+00  0.000000D+00
     77  0.194237D+00  0.000000D+00  0.000000D+00  0.214934D+00  0.000000D+00
     78  0.000000D+00  0.943984D+00  0.000000D+00  0.000000D+00  0.830557D+00
     79  0.000000D+00  0.000000D+00  0.943984D+00  0.000000D+00  0.000000D+00
     80  0.370103D+00  0.000000D+00  0.000000D+00  0.835151D+00  0.000000D+00
     81  0.000000D+00  0.830557D+00  0.000000D+00  0.000000D+00  0.971589D+00
     82  0.000000D+00  0.000000D+00  0.830557D+00  0.000000D+00  0.000000D+00
     83  0.225859D+00  0.000000D+00  0.000000D+00  0.766719D+00  0.000000D+00
     84 -0.132460D-01  0.000000D+00  0.000000D+00 -0.127330D-02  0.000000D+00
     85  0.000000D+00 -0.124463D-02  0.000000D+00  0.000000D+00 -0.282285D-03
     86  0.000000D+00  0.000000D+00 -0.124463D-02  0.000000D+00  0.000000D+00
     87  0.000000D+00  0.000000D+00  0.000000D+00  0.000000D+00  0.000000D+00
     88  0.000000D+00  0.000000D+00  0.000000D+00  0.000000D+00  0.000000D+00
     89 -0.965767D-01  0.000000D+00  0.000000D+00 -0.108717D-01  0.000000D+00
     90  0.000000D+00 -0.105894D-01  0.000000D+00  0.000000D+00 -0.251454D-02
     91  0.000000D+00  0.000000D+00 -0.105894D-01  0.000000D+00  0.000000D+00
     92  0.000000D+00  0.000000D+00  0.000000D+00  0.000000D+00  0.000000D+00
     93  0.000000D+00  0.000000D+00  0.000000D+00  0.000000D+00  0.000000D+00
     94 -0.443818D+00  0.000000D+00  0.000000D+00 -0.272733D+00  0.000000D+00
     95  0.000000D+00 -0.255859D+00  0.000000D+00  0.000000D+00 -0.104995D+00
     96  0.000000D+00  0.000000D+00 -0.255859D+00  0.000000D+00  0.000000D+00
     97  0.000000D+00  0.000000D+00  0.000000D+00  0.000000D+00  0.000000D+00
     98  0.000000D+00  0.000000D+00  0.000000D+00  0.000000D+00  0.000000D+00
     99 -0.267645D+00  0.000000D+00  0.000000D+00 -0.348776D+00  0.000000D+00
    100  0.000000D+00 -0.320526D+00  0.000000D+00  0.000000D+00 -0.188008D+00
    101  0.000000D+00  0.000000D+00 -0.320526D+00  0.000000D+00  0.000000D+00
    102  0.000000D+00  0.000000D+00  0.000000D+00  0.000000D+00  0.000000D+00
    103  0.000000D+00  0.000000D+00  0.000000D+00  0.000000D+00  0.000000D+00
    104 -0.119834D+00  0.000000D+00  0.000000D+00 -0.295217D+00  0.000000D+00
    105  0.000000D+00 -0.265884D+00  0.000000D+00  0.000000D+00 -0.233274D+00
    106  0.000000D+00  0.000000D+00 -0.265884D+00  0.000000D+00  0.000000D+00
    107  0.000000D+00  0.000000D+00  0.000000D+00  0.000000D+00  0.000000D+00
    108  0.000000D+00  0.000000D+00  0.000000D+00  0.000000D+00  0.000000D+00
    109  0.103092D-01  0.000000D+00  0.000000D+00  0.181092D-03  0.000000D+00
    110  0.000000D+00  0.159937D-03  0.000000D+00  0.000000D+00  0.185039D-04
    111  0.000000D+00  0.000000D+00  0.159937D-03  0.000000D+00  0.000000D+00
    112  0.000000D+00  0.000000D+00  0.000000D+00  0.000000D+00  0.000000D+00
    113  0.000000D+00  0.000000D+00  0.000000D+00  0.000000D+00  0.000000D+00
    114  0.000000D+00  0.000000D+00  0.000000D+00  0.000000D+00  0.000000D+00
    115  0.000000D+00  0.000000D+00  0.000000D+00  0.000000D+00  0.000000D+00
    116  0.104146D+00  0.000000D+00  0.000000D+00  0.810622D-01  0.000000D+00
    117  0.000000D+00  0.688323D-01  0.000000D+00  0.000000D+00  0.269162D-01
    118  0.000000D+00  0.000000D+00  0.688323D-01  0.000000D+00  0.000000D+00
    119  0.000000D+00  0.000000D+00  0.000000D+00  0.000000D+00  0.000000D+00
    120  0.000000D+00  0.000000D+00  0.000000D+00  0.000000D+00  0.000000D+00
    121  0.000000D+00  0.000000D+00  0.000000D+00  0.000000D+00  0.000000D+00
    122  0.000000D+00  0.000000D+00  0.000000D+00  0.000000D+00  0.000000D+00
               21            22            23            24            25 
     21  0.100000D+01
     22  0.000000D+00  0.100000D+01
     23  0.000000D+00  0.000000D+00  0.100000D+01
     24  0.000000D+00  0.000000D+00  0.000000D+00  0.100000D+01
     25  0.000000D+00  0.000000D+00  0.000000D+00  0.000000D+00  0.100000D+01
     26  0.000000D+00  0.000000D+00  0.000000D+00  0.000000D+00  0.000000D+00
     27  0.000000D+00  0.000000D+00  0.000000D+00  0.000000D+00  0.000000D+00
     28  0.000000D+00  0.000000D+00  0.531577D+00  0.000000D+00  0.000000D+00
     29  0.000000D+00  0.000000D+00  0.000000D+00  0.531577D+00  0.000000D+00
     30  0.000000D+00  0.000000D+00  0.000000D+00  0.000000D+00  0.531577D+00
     31  0.000000D+00  0.000000D+00  0.000000D+00  0.000000D+00  0.000000D+00
     32  0.000000D+00  0.000000D+00  0.000000D+00  0.000000D+00  0.000000D+00
     33  0.000000D+00  0.000000D+00  0.451989D-01  0.000000D+00  0.000000D+00
     34  0.000000D+00  0.000000D+00  0.000000D+00  0.451989D-01  0.000000D+00
     35  0.000000D+00  0.000000D+00  0.000000D+00  0.000000D+00  0.451989D-01
     36  0.000000D+00  0.000000D+00  0.000000D+00  0.000000D+00  0.000000D+00
     37  0.000000D+00  0.000000D+00  0.000000D+00  0.000000D+00  0.000000D+00
     38  0.000000D+00  0.000000D+00  0.145412D-01  0.000000D+00  0.000000D+00
     39  0.000000D+00  0.000000D+00  0.000000D+00  0.145412D-01  0.000000D+00
     40  0.000000D+00  0.000000D+00  0.000000D+00  0.000000D+00  0.145412D-01
     41  0.000000D+00  0.000000D+00  0.000000D+00  0.000000D+00  0.000000D+00
     42  0.000000D+00  0.000000D+00  0.000000D+00  0.000000D+00  0.000000D+00
     43  0.000000D+00  0.000000D+00  0.450016D-02  0.000000D+00  0.000000D+00
     44  0.000000D+00  0.000000D+00  0.000000D+00  0.450016D-02  0.000000D+00
     45  0.000000D+00  0.000000D+00  0.000000D+00  0.000000D+00  0.450016D-02
     46  0.000000D+00  0.000000D+00  0.000000D+00  0.000000D+00  0.000000D+00
     47  0.000000D+00  0.000000D+00  0.000000D+00  0.000000D+00  0.000000D+00
     48  0.000000D+00  0.000000D+00  0.000000D+00  0.000000D+00  0.000000D+00
     49  0.000000D+00  0.000000D+00  0.000000D+00  0.000000D+00  0.000000D+00
     50  0.000000D+00  0.000000D+00  0.000000D+00  0.000000D+00  0.000000D+00
     51  0.000000D+00  0.000000D+00  0.000000D+00  0.000000D+00  0.000000D+00
     52  0.000000D+00  0.000000D+00  0.000000D+00  0.000000D+00  0.000000D+00
     53  0.000000D+00  0.000000D+00  0.000000D+00  0.000000D+00  0.000000D+00
     54  0.000000D+00  0.000000D+00  0.000000D+00  0.000000D+00  0.000000D+00
     55  0.000000D+00  0.000000D+00  0.000000D+00  0.000000D+00  0.000000D+00
     56  0.000000D+00  0.000000D+00  0.000000D+00  0.000000D+00  0.000000D+00
     57  0.000000D+00  0.000000D+00  0.000000D+00  0.000000D+00  0.000000D+00
     58  0.000000D+00  0.000000D+00  0.000000D+00  0.000000D+00  0.000000D+00
     59  0.000000D+00  0.000000D+00  0.000000D+00  0.000000D+00  0.000000D+00
     60  0.000000D+00  0.000000D+00  0.000000D+00  0.000000D+00  0.000000D+00
     61  0.000000D+00  0.000000D+00  0.000000D+00  0.000000D+00  0.000000D+00
     62  0.000000D+00  0.774901D-02  0.448885D-01  0.000000D+00  0.000000D+00
     63  0.000000D+00  0.637145D-01  0.245094D+00  0.000000D+00  0.000000D+00
     64  0.000000D+00  0.314745D-01  0.198526D+00  0.000000D+00  0.000000D+00
     65  0.000000D+00  0.125847D+00  0.100897D+00  0.000000D+00  0.000000D+00
     66  0.000000D+00  0.282012D+00  0.864782D-03  0.000000D+00  0.000000D+00
     67  0.000000D+00  0.233274D+00  0.141478D-03  0.000000D+00  0.000000D+00
     68  0.000000D+00  0.143742D+00  0.220774D-04  0.000000D+00  0.000000D+00
     69  0.000000D+00  0.000000D+00  0.000000D+00  0.775602D-01  0.000000D+00
     70  0.696311D-02  0.000000D+00  0.000000D+00  0.000000D+00  0.775602D-01
     71  0.000000D+00  0.616459D-02 -0.214698D+00  0.000000D+00  0.000000D+00
     72  0.000000D+00  0.000000D+00  0.000000D+00  0.235848D+00  0.000000D+00
     73  0.334507D-01  0.000000D+00  0.000000D+00  0.000000D+00  0.235848D+00
     74  0.000000D+00  0.296619D-01 -0.258836D+00  0.000000D+00  0.000000D+00
     75  0.000000D+00  0.000000D+00  0.000000D+00  0.152171D+00  0.000000D+00
     76  0.137049D+00  0.000000D+00  0.000000D+00  0.000000D+00  0.152171D+00
     77  0.000000D+00  0.122140D+00  0.340099D-01  0.000000D+00  0.000000D+00
     78  0.000000D+00  0.000000D+00  0.000000D+00  0.441132D-02  0.000000D+00
     79  0.830557D+00  0.000000D+00  0.000000D+00  0.000000D+00  0.441132D-02
     80  0.000000D+00  0.766719D+00  0.451988D-02  0.000000D+00  0.000000D+00
     81  0.000000D+00  0.000000D+00  0.000000D+00  0.102062D-02  0.000000D+00
     82  0.971589D+00  0.000000D+00  0.000000D+00  0.000000D+00  0.102062D-02
     83  0.000000D+00  0.915581D+00  0.111136D-02  0.000000D+00  0.000000D+00
     84  0.000000D+00 -0.307268D-03  0.194318D+00  0.000000D+00  0.000000D+00
     85  0.000000D+00  0.000000D+00  0.000000D+00 -0.157423D+00  0.000000D+00
     86 -0.282285D-03  0.000000D+00  0.000000D+00  0.000000D+00 -0.157423D+00
     87  0.000000D+00  0.000000D+00  0.000000D+00  0.000000D+00  0.000000D+00
     88  0.000000D+00  0.000000D+00  0.000000D+00  0.000000D+00  0.000000D+00
     89  0.000000D+00 -0.273942D-02  0.829235D-01  0.000000D+00  0.000000D+00
     90  0.000000D+00  0.000000D+00  0.000000D+00 -0.377772D+00  0.000000D+00
     91 -0.251454D-02  0.000000D+00  0.000000D+00  0.000000D+00 -0.377772D+00
     92  0.000000D+00  0.000000D+00  0.000000D+00  0.000000D+00  0.000000D+00
     93  0.000000D+00  0.000000D+00  0.000000D+00  0.000000D+00  0.000000D+00
     94  0.000000D+00 -0.115647D+00  0.173057D-01  0.000000D+00  0.000000D+00
     95  0.000000D+00  0.000000D+00  0.000000D+00  0.202849D-01  0.000000D+00
     96 -0.104995D+00  0.000000D+00  0.000000D+00  0.000000D+00  0.202849D-01
     97  0.000000D+00  0.000000D+00  0.000000D+00  0.000000D+00  0.000000D+00
     98  0.000000D+00  0.000000D+00  0.000000D+00  0.000000D+00  0.000000D+00
     99  0.000000D+00 -0.208750D+00  0.930853D-02  0.000000D+00  0.000000D+00
    100  0.000000D+00  0.000000D+00  0.000000D+00  0.100644D-01  0.000000D+00
    101 -0.188008D+00  0.000000D+00  0.000000D+00  0.000000D+00  0.100644D-01
    102  0.000000D+00  0.000000D+00  0.000000D+00  0.000000D+00  0.000000D+00
    103  0.000000D+00  0.000000D+00  0.000000D+00  0.000000D+00  0.000000D+00
    104  0.000000D+00 -0.261598D+00  0.362338D-02  0.000000D+00  0.000000D+00
    105  0.000000D+00  0.000000D+00  0.000000D+00  0.376646D-02  0.000000D+00
    106 -0.233274D+00  0.000000D+00  0.000000D+00  0.000000D+00  0.376646D-02
    107  0.000000D+00  0.000000D+00  0.000000D+00  0.000000D+00  0.000000D+00
    108  0.000000D+00  0.000000D+00  0.000000D+00  0.000000D+00  0.000000D+00
    109  0.000000D+00  0.217994D-04 -0.130573D+00  0.000000D+00  0.000000D+00
    110  0.000000D+00  0.000000D+00  0.000000D+00  0.296758D+00  0.000000D+00
    111  0.185039D-04  0.000000D+00  0.000000D+00  0.000000D+00  0.296758D+00
    112  0.000000D+00  0.000000D+00  0.000000D+00  0.000000D+00  0.000000D+00
    113  0.000000D+00  0.000000D+00  0.000000D+00  0.000000D+00  0.000000D+00
    114  0.000000D+00  0.000000D+00  0.000000D+00  0.000000D+00  0.000000D+00
    115  0.000000D+00  0.000000D+00  0.000000D+00  0.000000D+00  0.000000D+00
    116  0.000000D+00  0.321209D-01 -0.989461D-02  0.000000D+00  0.000000D+00
    117  0.000000D+00  0.000000D+00  0.000000D+00 -0.967675D-02  0.000000D+00
    118  0.269162D-01  0.000000D+00  0.000000D+00  0.000000D+00 -0.967675D-02
    119  0.000000D+00  0.000000D+00  0.000000D+00  0.000000D+00  0.000000D+00
    120  0.000000D+00  0.000000D+00  0.000000D+00  0.000000D+00  0.000000D+00
    121  0.000000D+00  0.000000D+00  0.000000D+00  0.000000D+00  0.000000D+00
    122  0.000000D+00  0.000000D+00  0.000000D+00  0.000000D+00  0.000000D+00
               26            27            28            29            30 
     26  0.100000D+01
     27  0.000000D+00  0.100000D+01
     28  0.000000D+00  0.000000D+00  0.100000D+01
     29  0.000000D+00  0.000000D+00  0.000000D+00  0.100000D+01
     30  0.000000D+00  0.000000D+00  0.000000D+00  0.000000D+00  0.100000D+01
     31  0.531577D+00  0.000000D+00  0.000000D+00  0.000000D+00  0.000000D+00
     32  0.000000D+00  0.531577D+00  0.000000D+00  0.000000D+00  0.000000D+00
     33  0.000000D+00  0.000000D+00  0.274574D+00  0.000000D+00  0.000000D+00
     34  0.000000D+00  0.000000D+00  0.000000D+00  0.274574D+00  0.000000D+00
     35  0.000000D+00  0.000000D+00  0.000000D+00  0.000000D+00  0.274574D+00
     36  0.451989D-01  0.000000D+00  0.000000D+00  0.000000D+00  0.000000D+00
     37  0.000000D+00  0.451989D-01  0.000000D+00  0.000000D+00  0.000000D+00
     38  0.000000D+00  0.000000D+00  0.104975D+00  0.000000D+00  0.000000D+00
     39  0.000000D+00  0.000000D+00  0.000000D+00  0.104975D+00  0.000000D+00
     40  0.000000D+00  0.000000D+00  0.000000D+00  0.000000D+00  0.104975D+00
     41  0.145412D-01  0.000000D+00  0.000000D+00  0.000000D+00  0.000000D+00
     42  0.000000D+00  0.145412D-01  0.000000D+00  0.000000D+00  0.000000D+00
     43  0.000000D+00  0.000000D+00  0.356443D-01  0.000000D+00  0.000000D+00
     44  0.000000D+00  0.000000D+00  0.000000D+00  0.356443D-01  0.000000D+00
     45  0.000000D+00  0.000000D+00  0.000000D+00  0.000000D+00  0.356443D-01
     46  0.450016D-02  0.000000D+00  0.000000D+00  0.000000D+00  0.000000D+00
     47  0.000000D+00  0.450016D-02  0.000000D+00  0.000000D+00  0.000000D+00
     48  0.000000D+00  0.000000D+00  0.000000D+00  0.000000D+00  0.000000D+00
     49  0.000000D+00  0.000000D+00  0.000000D+00  0.000000D+00  0.000000D+00
     50  0.000000D+00  0.000000D+00  0.000000D+00  0.000000D+00  0.000000D+00
     51  0.000000D+00  0.000000D+00  0.000000D+00  0.000000D+00  0.000000D+00
     52  0.000000D+00  0.000000D+00  0.000000D+00  0.000000D+00  0.000000D+00
     53  0.000000D+00  0.000000D+00  0.000000D+00  0.000000D+00  0.000000D+00
     54  0.000000D+00  0.000000D+00  0.000000D+00  0.000000D+00  0.000000D+00
     55  0.000000D+00  0.000000D+00  0.000000D+00  0.000000D+00  0.000000D+00
     56  0.000000D+00  0.000000D+00  0.000000D+00  0.000000D+00  0.000000D+00
     57  0.000000D+00  0.000000D+00  0.000000D+00  0.000000D+00  0.000000D+00
     58  0.000000D+00  0.000000D+00  0.000000D+00  0.000000D+00  0.000000D+00
     59  0.000000D+00  0.000000D+00  0.000000D+00  0.000000D+00  0.000000D+00
     60  0.000000D+00  0.000000D+00  0.000000D+00  0.000000D+00  0.000000D+00
     61  0.000000D+00  0.000000D+00  0.000000D+00  0.000000D+00  0.000000D+00
     62  0.000000D+00  0.000000D+00  0.140093D+00  0.000000D+00  0.000000D+00
     63  0.000000D+00  0.000000D+00  0.514045D+00  0.000000D+00  0.000000D+00
     64  0.000000D+00  0.000000D+00  0.431769D+00  0.000000D+00  0.000000D+00
     65  0.000000D+00  0.000000D+00  0.323662D+00  0.000000D+00  0.000000D+00
     66  0.000000D+00  0.000000D+00  0.628034D-02  0.000000D+00  0.000000D+00
     67  0.000000D+00  0.000000D+00  0.112236D-02  0.000000D+00  0.000000D+00
     68  0.000000D+00  0.000000D+00  0.183565D-03  0.000000D+00  0.000000D+00
     69  0.000000D+00  0.000000D+00  0.000000D+00  0.181366D+00  0.000000D+00
     70  0.000000D+00  0.000000D+00  0.000000D+00  0.000000D+00  0.181366D+00
     71  0.000000D+00  0.000000D+00 -0.557998D-01  0.000000D+00  0.000000D+00
     72  0.000000D+00  0.000000D+00  0.000000D+00  0.503261D+00  0.000000D+00
     73  0.000000D+00  0.000000D+00  0.000000D+00  0.000000D+00  0.503261D+00
     74  0.000000D+00  0.000000D+00  0.492691D-02  0.000000D+00  0.000000D+00
     75  0.000000D+00  0.000000D+00  0.000000D+00  0.515443D+00  0.000000D+00
     76  0.000000D+00  0.000000D+00  0.000000D+00  0.000000D+00  0.515443D+00
     77  0.000000D+00  0.000000D+00  0.252307D+00  0.000000D+00  0.000000D+00
     78  0.000000D+00  0.000000D+00  0.000000D+00  0.320365D-01  0.000000D+00
     79  0.000000D+00  0.000000D+00  0.000000D+00  0.000000D+00  0.320365D-01
     80  0.000000D+00  0.000000D+00  0.330454D-01  0.000000D+00  0.000000D+00
     81  0.000000D+00  0.000000D+00  0.000000D+00  0.809669D-02  0.000000D+00
     82  0.000000D+00  0.000000D+00  0.000000D+00  0.000000D+00  0.809669D-02
     83  0.000000D+00  0.000000D+00  0.883117D-02  0.000000D+00  0.000000D+00
     84  0.000000D+00  0.000000D+00 -0.154787D-01  0.000000D+00  0.000000D+00
     85  0.000000D+00  0.000000D+00  0.000000D+00 -0.963823D-01  0.000000D+00
     86  0.000000D+00  0.000000D+00  0.000000D+00  0.000000D+00 -0.963823D-01
     87  0.276031D-01  0.000000D+00  0.000000D+00  0.000000D+00  0.000000D+00
     88  0.000000D+00  0.276031D-01  0.000000D+00  0.000000D+00  0.000000D+00
     89  0.000000D+00  0.000000D+00 -0.102397D+00  0.000000D+00  0.000000D+00
     90  0.000000D+00  0.000000D+00  0.000000D+00 -0.284025D+00  0.000000D+00
     91  0.000000D+00  0.000000D+00  0.000000D+00  0.000000D+00 -0.284025D+00
     92  0.142099D+00  0.000000D+00  0.000000D+00  0.000000D+00  0.000000D+00
     93  0.000000D+00  0.142099D+00  0.000000D+00  0.000000D+00  0.000000D+00
     94  0.000000D+00  0.000000D+00  0.117730D+00  0.000000D+00  0.000000D+00
     95  0.000000D+00  0.000000D+00  0.000000D+00  0.135697D+00  0.000000D+00
     96  0.000000D+00  0.000000D+00  0.000000D+00  0.000000D+00  0.135697D+00
     97  0.362620D-01  0.000000D+00  0.000000D+00  0.000000D+00  0.000000D+00
     98  0.000000D+00  0.362620D-01  0.000000D+00  0.000000D+00  0.000000D+00
     99  0.000000D+00  0.000000D+00  0.689368D-01  0.000000D+00  0.000000D+00
    100  0.000000D+00  0.000000D+00  0.000000D+00  0.742162D-01  0.000000D+00
    101  0.000000D+00  0.000000D+00  0.000000D+00  0.000000D+00  0.742162D-01
    102  0.129918D-01  0.000000D+00  0.000000D+00  0.000000D+00  0.000000D+00
    103  0.000000D+00  0.129918D-01  0.000000D+00  0.000000D+00  0.000000D+00
    104  0.000000D+00  0.000000D+00  0.288776D-01  0.000000D+00  0.000000D+00
    105  0.000000D+00  0.000000D+00  0.000000D+00  0.299853D-01  0.000000D+00
    106  0.000000D+00  0.000000D+00  0.000000D+00  0.000000D+00  0.299853D-01
    107  0.425090D-02  0.000000D+00  0.000000D+00  0.000000D+00  0.000000D+00
    108  0.000000D+00  0.425090D-02  0.000000D+00  0.000000D+00  0.000000D+00
    109  0.000000D+00  0.000000D+00 -0.745401D-02  0.000000D+00  0.000000D+00
    110  0.000000D+00  0.000000D+00  0.000000D+00  0.250701D-01  0.000000D+00
    111  0.000000D+00  0.000000D+00  0.000000D+00  0.000000D+00  0.250701D-01
    112 -0.130772D+00  0.000000D+00  0.000000D+00  0.000000D+00  0.000000D+00
    113  0.000000D+00 -0.130772D+00  0.000000D+00  0.000000D+00  0.000000D+00
    114  0.000000D+00  0.000000D+00  0.000000D+00  0.000000D+00  0.000000D+00
    115  0.000000D+00  0.000000D+00  0.000000D+00  0.000000D+00  0.000000D+00
    116  0.000000D+00  0.000000D+00 -0.686422D-01  0.000000D+00  0.000000D+00
    117  0.000000D+00  0.000000D+00  0.000000D+00 -0.670047D-01  0.000000D+00
    118  0.000000D+00  0.000000D+00  0.000000D+00  0.000000D+00 -0.670047D-01
    119 -0.862145D-02  0.000000D+00  0.000000D+00  0.000000D+00  0.000000D+00
    120  0.000000D+00 -0.862145D-02  0.000000D+00  0.000000D+00  0.000000D+00
    121  0.000000D+00  0.000000D+00  0.000000D+00  0.000000D+00  0.000000D+00
    122  0.000000D+00  0.000000D+00  0.000000D+00  0.000000D+00  0.000000D+00
[...]
 116         V                13.564428         33.954831
 Total kinetic energy from orbitals= 1.126290873252D+02
 Leave Link  601 at Sun Oct 19 17:36:02 2025, MaxMem=  4294967296 cpu:               0.1 elap:               0.1
 (Enter /home/andy/gdvj28p/gdv/l9999.exe)
 Electronic transition elements 
                 1             2             3             4             5 
      1  -0.112563D+03 -0.112563D+03 -0.112490D+03 -0.112454D+03 -0.112454D+03
      2   0.000000D+00  0.000000D+00  0.000000D+00  0.000000D+00  0.000000D+00
      3   0.000000D+00  0.000000D+00  0.000000D+00  0.000000D+00  0.000000D+00
      4   0.000000D+00  0.000000D+00  0.000000D+00  0.000000D+00  0.000000D+00
      5   0.000000D+00  0.000000D+00  0.000000D+00  0.000000D+00  0.000000D+00
      6   0.000000D+00  0.000000D+00  0.000000D+00  0.000000D+00  0.000000D+00
      7   0.000000D+00  0.000000D+00  0.000000D+00  0.000000D+00  0.000000D+00
      8   0.000000D+00  0.000000D+00  0.000000D+00  0.000000D+00  0.000000D+00
      9   0.000000D+00  0.000000D+00  0.000000D+00  0.000000D+00  0.000000D+00
     10   0.000000D+00  0.000000D+00  0.000000D+00  0.000000D+00  0.000000D+00
     11   0.000000D+00  0.000000D+00  0.000000D+00  0.000000D+00  0.000000D+00
     12   0.000000D+00  0.000000D+00  0.000000D+00  0.000000D+00  0.000000D+00
     13   0.000000D+00  0.000000D+00  0.000000D+00  0.000000D+00  0.000000D+00
     14   0.000000D+00  0.000000D+00  0.000000D+00  0.000000D+00  0.000000D+00
     15   0.000000D+00  0.000000D+00  0.000000D+00  0.000000D+00  0.000000D+00
     16   0.000000D+00  0.000000D+00  0.000000D+00  0.000000D+00  0.000000D+00
                 6             7             8             9            10 
      1  -0.112445D+03 -0.112445D+03 -0.112419D+03 -0.112419D+03 -0.112404D+03
      2  -0.730127D+00 -0.325286D-01  0.000000D+00  0.000000D+00  0.000000D+00
      3   0.325286D-01 -0.730127D+00  0.000000D+00  0.000000D+00  0.000000D+00
      4   0.000000D+00  0.000000D+00  0.000000D+00  0.000000D+00  0.000000D+00
      5   0.123254D+00  0.549118D-02  0.000000D+00  0.000000D+00  0.000000D+00
      6  -0.549118D-02  0.123254D+00  0.000000D+00  0.000000D+00  0.000000D+00
      7   0.000000D+00  0.000000D+00  0.000000D+00  0.000000D+00  0.000000D+00
      8  -0.620924D-01  0.139371D+01  0.000000D+00  0.000000D+00  0.000000D+00
      9  -0.139371D+01 -0.620924D-01  0.000000D+00  0.000000D+00  0.000000D+00
     10   0.000000D+00  0.000000D+00  0.000000D+00  0.000000D+00  0.000000D+00
     11   0.000000D+00  0.000000D+00  0.000000D+00  0.000000D+00 -0.167072D+00
     12   0.000000D+00  0.000000D+00  0.000000D+00  0.000000D+00  0.167072D+00
     13   0.000000D+00  0.000000D+00  0.000000D+00  0.000000D+00  0.000000D+00
     14   0.000000D+00  0.000000D+00  0.000000D+00  0.000000D+00  0.464275D-01
     15  -0.499591D+00 -0.222577D-01  0.000000D+00  0.000000D+00  0.000000D+00
     16   0.222577D-01 -0.499591D+00  0.000000D+00  0.000000D+00  0.000000D+00
                11            12            13            14            15 
      1  -0.112404D+03 -0.112376D+03 -0.112344D+03 -0.112330D+03 -0.112325D+03
      2   0.000000D+00  0.000000D+00  0.000000D+00  0.000000D+00  0.000000D+00
      3   0.000000D+00  0.000000D+00  0.000000D+00  0.000000D+00  0.000000D+00
      4   0.000000D+00  0.000000D+00 -0.423080D+00  0.000000D+00  0.000000D+00
      5   0.000000D+00  0.000000D+00  0.000000D+00  0.000000D+00  0.000000D+00
      6   0.000000D+00  0.000000D+00  0.000000D+00  0.000000D+00  0.000000D+00
      7   0.000000D+00  0.000000D+00  0.184991D+00  0.000000D+00  0.000000D+00
      8   0.000000D+00  0.000000D+00  0.000000D+00  0.000000D+00  0.000000D+00
      9   0.000000D+00  0.000000D+00  0.000000D+00  0.000000D+00  0.000000D+00
     10   0.000000D+00  0.000000D+00  0.000000D+00  0.000000D+00  0.000000D+00
     11  -0.464275D-01  0.000000D+00 -0.393780D+00  0.000000D+00  0.000000D+00
     12   0.464275D-01  0.000000D+00 -0.393780D+00  0.000000D+00  0.000000D+00
     13   0.000000D+00  0.000000D+00 -0.525330D+00  0.000000D+00  0.000000D+00
     14  -0.167072D+00  0.000000D+00  0.000000D+00  0.000000D+00  0.000000D+00
     15   0.000000D+00  0.000000D+00  0.000000D+00  0.000000D+00  0.000000D+00
     16   0.000000D+00  0.000000D+00  0.000000D+00  0.000000D+00  0.000000D+00

 Test job not archived.
 1\1\GINC-HERMES\SP\UCIS-FC\Gen\C1O1\ANDY\19-Oct-2025\0\\#P ucis(mo,nst
 ates=15)/cc-pVTZ extrabasis gfprint nosymm int(acc2e=16) SCF(NoVarAcc,
 NoIncFock,MaxCYC=64) IOp(3/196=1) IOp(3/33=1) Pop=Full IOp(3/194=10003
 501,3/195=5,6/18=1,8/10=91,8/37=3,8/38=-27,9/127=2) OUTPUT=(faf,i4lab,
 Files=(514,619,751,870,1,2,3,4,5,6,7,8,9,10,11,12,13,14))\\Title Card 
 Required\\0,1\C,0,0.,0.,-0.5615\O,0,0.,0.,0.5615\\Version=ES64L-GDVRev
 J.28+\HF=-112.7815547\MP2=-113.0282341\PUHF=-112.7815547\PMP2-0=-113.0
 282341\S2=0.\S2-1=0.\S2A=0.\RMSD=4.291e-09\PG=C*V [C*(C1O1)]\\@


 IF IT HAPPENS, IT MUST BE POSSIBLE.

 -- THE UNNAMED LAW FROM PAUL DICKSON'S 
    "THE OFFICIAL RULES"
 RW2BAF: Writing unformatted file "MatrixElements.faf"
 Gaussian matrix elements                                         Version   3 NLab=11 I4Labs=T I2Labs=F
 Write SHELL TO ATOM MAP                   from file      0 offset           0 length                  38 to binary array file.
 Write SHELL TYPES                         from file      0 offset           0 length                  38 to binary array file.
 Write NUMBER OF PRIMITIVES PER SHELL      from file      0 offset           0 length                  38 to binary array file.
 Write PRIMITIVE EXPONENTS                 from file      0 offset           0 length                  64 to binary array file.
 Write CONTRACTION COEFFICIENTS            from file      0 offset           0 length                  64 to binary array file.
 Write P(S=P) CONTRACTION COEFFICIENTS     from file      0 offset           0 length                  64 to binary array file.
 Write COORDINATES OF EACH SHELL           from file      0 offset           0 length                 114 to binary array file.
 Write BONDS PER ATOM                      from file      0 offset           0 length                   2 to binary array file.
 Write BONDED ATOMS                        from file      0 offset           0 length                   2 to binary array file.
 Write BOND TYPES                          from file      0 offset           0 length                   2 to binary array file.
 Write ONIOM CHARGE/MULT                   from file      0 offset           0 length                  32 to binary array file.
 Write ONIOM ATOM LAYERS                   from file      0 offset           0 length                   2 to binary array file.
 Write ONIOM ATOM MODIFIERS                from file      0 offset           0 length                   2 to binary array file.
 Write ONIOM ATOM TYPES                    from file      0 offset           0 length                   2 to binary array file.
 Write ONIOM LINK ATOMS                    from file      0 offset           0 length                   2 to binary array file.
 Write ONIOM LINK CHARGES                  from file      0 offset           0 length                   2 to binary array file.
 Write ONIOM LINK DISTANCES                from file      0 offset           0 length                   8 to binary array file.
 Write SYMINF INTEGERS                     from file      0 offset           0 length                  26 to binary array file.
 Write ROTTR TO INPUT ORIENTATION          from file      0 offset           0 length                  12 to binary array file.
 Write TITLE                               from file      0 offset           0 length                   5 to binary array file.
 Write ROUTE                               from file      0 offset           0 length                  71 to binary array file.
 Write INFO1-9                             from file      0 offset           0 length                   9 to binary array file.
 Write METHOD                              from file      0 offset           0 length                   2 to binary array file.
 Write BASIS NAME                          from file      0 offset           0 length                   1 to binary array file.
 Write LINK0 COMMANDS                      from file      0 offset           0 length                   8 to binary array file.
 Write POINT GROUP                         from file      0 offset           0 length                   4 to binary array file.
 Write POINT GROUP DIMENSIONS              from file      0 offset           0 length                   8 to binary array file.
 Write POINT GROUP IRREP NAMES             from file      0 offset           0 length                   8 to binary array file.
 Write POINT GROUP CLASS NAMES             from file      0 offset           0 length                   8 to binary array file.
 Write POINT GROUP GENERATORS              from file      0 offset           0 length                   2 to binary array file.
 Write POINT GROUP CLASS OF OPERATORS      from file      0 offset           0 length                   4 to binary array file.
 Write POINT GROUP ROTATIONS               from file      0 offset           0 length                  48 to binary array file.
 Write POINT GROUP CELL TRANS              from file      0 offset           0 length                  12 to binary array file.
 Write POINT GROUP CHAR TABLE              from file      0 offset           0 length                  16 to binary array file.
 Write POINT GROUP ATOM PERMUTATIONS       from file      0 offset           0 length                   8 to binary array file.
 Write ILSW                                from file      0 offset           0 length                 100 to binary array file.
 Write RLSW                                from file      0 offset           0 length                 100 to binary array file.
 Write GAUSSIAN SCALARS                    from file 100501 offset           0 to binary array file.
 Write OPTIMIZATION FLAGS                  from file      0 offset           0 length                   2 to binary array file.
 Write INTEGER ISO                         from file      0 offset           0 length                   2 to binary array file.
 Write REAL ZEFFECTIVE                     from file      0 offset           0 length                   2 to binary array file.
 Write REAL ZNUCLEAR                       from file      0 offset           0 length                   2 to binary array file.
 Write MULLIKEN CHARGES                    from file      0 offset           0 length                   2 to binary array file.
 Write NUCLEAR GRADIENT                    from file      0 offset           0 length                   6 to binary array file.
 Write NON-ADIABATIC COUPLING              from file      0 offset           0 length                   6 to binary array file.
 Write ETRAN SCALARS                       from file      0 offset           0 length                  20 to binary array file.
 Write ETRAN SPINS                         from file      0 offset           0 length                  15 to binary array file.
 Write ETRAN SYMS                          from file      0 offset           0 length                  15 to binary array file.
 Write ETRAN STATE VALUES                  from file      0 offset           0 length                 240 to binary array file.
 Write MO TRANSFORMATION WINDOW            from file 100569 offset           0 length                   2 to binary array file.
 Write HARM CONSTRAINT C AND FC            from file      0 offset           0 length                  12 to binary array file.
 Write FINITE EM FIELD                     from file 100521 offset           0 length                 105 to binary array file.
 Write OVERLAP                             from file 100514 offset           0 length                7503 to binary array file.
 Write CORE HAMILTONIAN ALPHA              from file 100515 offset           0 length                7503 to binary array file.
 Write CORE HAMILTONIAN BETA               from file 100515 offset        7503 length                7503 to binary array file.
 Write KINETIC ENERGY                      from file 100516 offset           0 length                7503 to binary array file.
 Write ORTHONORMAL BASIS                   from file 100685 offset           0 length               14152 to binary array file.
 Write DIPOLE INTEGRALS                    from file 100518 offset           0 length               22509 to binary array file.
 Write DIP VEL INTEGRALS                   from file 100572 offset           0 length               22509 to binary array file.
 Write R X DEL INTEGRALS                   from file 100572 offset       22509 length               22509 to binary array file.
 Write R X DEL - DEL X R INTEGRALS         from file 100572 offset       45018 length               45018 to binary array file.
 Array MAGNETIC FIELD P1 (GIAO)             on  file 100696 does not exist.
 Write ALPHA ORBITAL ENERGIES              from file      0 offset           0 length                 116 to binary array file.
 Write BETA ORBITAL ENERGIES               from file      0 offset           0 length                 116 to binary array file.
 Write ALPHA MO COEFFICIENTS               from file 100524 offset           0 length               14152 to binary array file.
 Write BETA MO COEFFICIENTS                from file 100526 offset           0 length               14152 to binary array file.
 Write SCF ORBITAL OCCUPATIONS             from file 100861 offset           0 length                 232 to binary array file.
 Write ALPHA FOCK MATRIX                   from file 100536 offset           0 length                7503 to binary array file.
 Write BETA FOCK MATRIX                    from file 100538 offset           0 length                7503 to binary array file.
 Write ENERGY-WEIGHTED DENSITY             from file 100571 offset           0 length                7503 to binary array file.
 Write SCF ENERGY-WEIGHTED DENSITY         from file 100571 offset        7503 length                7503 to binary array file.
 Write ALPHA SCF DENSITY MATRIX            from file      0 offset           0 length                7503 to binary array file.
 Write BETA SCF DENSITY MATRIX             from file      0 offset           0 length                7503 to binary array file.
 Write ALPHA CI RHO(1) DENSITY MATRIX      from file      0 offset           0 length                7503 to binary array file.
 Write BETA CI RHO(1) DENSITY MATRIX       from file      0 offset           0 length                7503 to binary array file.
 Write TRANS MO COEFFICIENTS               from file 100548 offset           0 length               21228 to binary array file.
 Write EXCITED STATE DIMS                  from file      0 offset           0 length                   8 to binary array file.
 Write EXCITED STATE SPINS                 from file      0 offset           0 length                  15 to binary array file.
 Write EXCITED STATE DENSITIES             from file      0 offset           0 length              225090 to binary array file.
 Write GROUND TO EXCITED STATE DENSITIES   from file      0 offset           0 length              446520 to binary array file.
 Write SSCIFILE INTEGERS                   from file      0 offset           0 length                  12 to binary array file.
 Write SSCIFILE REALS                      from file      0 offset           0 length               24615 to binary array file.
 WrULi1:  IRw=100514 LRw=    7503 NInt=       0 IOff=       0 NIntR=       0 NInt=       0 NReal=    7503
 Write FILE     514 REALS                  from file 100514 offset           0 length                7503 to binary array file.
 WrULi1:  IRw=100619 LRw=     341 NInt=       0 IOff=       0 NIntR=       0 NInt=       0 NReal=     341
 Write FILE     619 REALS                  from file 100619 offset           0 length                 341 to binary array file.
 WrULi1:  IRw=100751 LRw=       0 NInt=       0 IOff=       0 NIntR=       0 NInt=       0 NReal=       0
 WrULi1:  IRw=100870 LRw=    7503 NInt=       0 IOff=       0 NIntR=       0 NInt=       0 NReal=    7503
 Write FILE     870 REALS                  from file 100870 offset           0 length                7503 to binary array file.
 WrULi1:  IRw=100001 LRw=   33210 NInt=       0 IOff=       0 NIntR=       0 NInt=       0 NReal=   33210
 Write FILE       1 REALS                  from file 100001 offset           0 length               33210 to binary array file.
 WrULi1:  IRw=100002 LRw=  168100 NInt=       0 IOff=       0 NIntR=       0 NInt=       0 NReal=  168100
 Write FILE       2 REALS                  from file 100002 offset           0 length              168100 to binary array file.
 WrULi1:  IRw=100003 LRw=   33210 NInt=       0 IOff=       0 NIntR=       0 NInt=       0 NReal=   33210
 Write FILE       3 REALS                  from file 100003 offset           0 length               33210 to binary array file.
 WrULi1:  IRw=100004 LRw=      55 NInt=       0 IOff=       0 NIntR=       0 NInt=       0 NReal=      55
 Write FILE       4 REALS                  from file 100004 offset           0 length                  55 to binary array file.
 WrULi1:  IRw=100005 LRw=  168100 NInt=       0 IOff=       0 NIntR=       0 NInt=       0 NReal=  168100
 Write FILE       5 REALS                  from file 100005 offset           0 length              168100 to binary array file.
 WrULi1:  IRw=100006 LRw=     225 NInt=       0 IOff=       0 NIntR=       0 NInt=       0 NReal=     225
 Write FILE       6 REALS                  from file 100006 offset           0 length                 225 to binary array file.
 WrULi1:  IRw=100007 LRw=   51045 NInt=       0 IOff=       0 NIntR=       0 NInt=       0 NReal=   51045
 Write FILE       7 REALS                  from file 100007 offset           0 length               51045 to binary array file.
 WrULi1:  IRw=100008 LRw=   51045 NInt=       0 IOff=       0 NIntR=       0 NInt=       0 NReal=   51045
 Write FILE       8 REALS                  from file 100008 offset           0 length               51045 to binary array file.
 WrULi1:  IRw=100009 LRw=      55 NInt=       0 IOff=       0 NIntR=       0 NInt=       0 NReal=      55
 Write FILE       9 REALS                  from file 100009 offset           0 length                  55 to binary array file.
 WrULi1:  IRw=100010 LRw=  168100 NInt=       0 IOff=       0 NIntR=       0 NInt=       0 NReal=  168100
 Write FILE      10 REALS                  from file 100010 offset           0 length              168100 to binary array file.
 WrULi1:  IRw=100011 LRw=    4100 NInt=       0 IOff=       0 NIntR=       0 NInt=       0 NReal=    4100
 Write FILE      11 REALS                  from file 100011 offset           0 length                4100 to binary array file.
 WrULi1:  IRw=100012 LRw=    6150 NInt=       0 IOff=       0 NIntR=       0 NInt=       0 NReal=    6150
 Write FILE      12 REALS                  from file 100012 offset           0 length                6150 to binary array file.
 WrULi1:  IRw=100013 LRw=    6150 NInt=       0 IOff=       0 NIntR=       0 NInt=       0 NReal=    6150
 Write FILE      13 REALS                  from file 100013 offset           0 length                6150 to binary array file.
 WrULi1:  IRw=100014 LRw=    4100 NInt=       0 IOff=       0 NIntR=       0 NInt=       0 NReal=    4100
 Write FILE      14 REALS                  from file 100014 offset           0 length                4100 to binary array file.
 No 2e integrals to process.
 Job cpu time:       0 days  0 hours  1 minutes 10.5 seconds.
 Elapsed time:       0 days  0 hours  0 minutes  8.4 seconds.
 File lengths (MBytes):  RWF=    143 Int=      0 D2E=      0 Chk=      8 Scr=      1
 Normal termination of Gaussian DV at Sun Oct 19 17:36:02 2025.
