 Entering Gaussian System, Link 0=gdv
 Initial command:
 /home/andy/gdvj28p/gdv/l1.exe "/home/andy/tdci-test/TDCI-CAP/test/Test4_SOC_linear_HF_HCl/g_HF/Gau-989846.inp" -scrdir="/home/andy/tdci-test/TDCI-CAP/test/Test4_SOC_linear_HF_HCl/g_HF/"
 Entering Link 1 = /home/andy/gdvj28p/gdv/l1.exe PID=    989848.
  
 Copyright (c) 1988-2024, Gaussian, Inc.  All Rights Reserved.
  
 This is the private, development version of
 the Gaussian(R) DV system of programs. It is based on
 the Gaussian(R) 16 system (copyright 2016, Gaussian, Inc.),
 the Gaussian(R) 09 system (copyright 2009, Gaussian, Inc.),
 the Gaussian(R) 03 system (copyright 2003, Gaussian, Inc.),
 the Gaussian(R) 98 system (copyright 1998, Gaussian, Inc.),
 the Gaussian(R) 94 system (copyright 1995, Gaussian, Inc.),
 the Gaussian 92(TM) system (copyright 1992, Gaussian, Inc.),
 the Gaussian 90(TM) system (copyright 1990, Gaussian, Inc.),
 the Gaussian 88(TM) system (copyright 1988, Gaussian, Inc.),
 the Gaussian 86(TM) system (copyright 1986, Carnegie Mellon
 University), and the Gaussian 82(TM) system (copyright 1983,
 Carnegie Mellon University). Gaussian is a federally registered
 trademark of Gaussian, Inc.
  
 This software contains proprietary and confidential information,
 including trade secrets, belonging to Gaussian, Inc.
  
 This software is provided under written license and may be
 used, copied, transmitted, or stored only in accord with that
 written license.
  
 The following legend is applicable only to US Government
 contracts under FAR:
  
                    RESTRICTED RIGHTS LEGEND
  
 Use, reproduction and disclosure by the US Government is
 subject to restrictions as set forth in subparagraphs (a)
 and (c) of the Commercial Computer Software - Restricted
 Rights clause in FAR 52.227-19.
  
 Gaussian, Inc.
 340 Quinnipiac St., Bldg. 40, Wallingford CT 06492
  
  
 ---------------------------------------------------------------
 Warning -- This program may not be used in any manner that
 competes with the business of Gaussian, Inc. or will provide
 assistance to any competitor of Gaussian, Inc.  The licensee
 of this program is prohibited from giving any competitor of
 Gaussian, Inc. access to this program.  By using this program,
 the user acknowledges that Gaussian, Inc. is engaged in the
 business of creating and licensing software in the field of
 computational chemistry and represents and warrants to the
 licensee that it is not a competitor of Gaussian, Inc. and that
 it will not use this program in any manner prohibited above.
 ---------------------------------------------------------------
  

 Cite this work as:
 Gaussian Development Version, Revision J.28+,
 M. J. Frisch, G. W. Trucks, G. Scalmani, J. R. Cheeseman, X. Li, 
 J. Bloino, B. G. Janesko, A. V. Marenich, J. Zheng, F. Lipparini, 
 A. Jenkins, A. Liu, H. Liu, H. B. Schlegel, G. E. Scuseria, 
 M. A. Robb, V. Barone, G. A. Petersson, H. Nakatsuji, B. Mennucci, 
 C. Adamo, N. Rega, M. Caricato, H. P. Hratchian, J. V. Ortiz, 
 F. Pawlowski, A. F. Izmaylov, H. Hu, C. Liao, J. L. Sonnenberg, 
 D. Williams-Young, F. Ding, R. Gomperts, F. Egidi, J. Goings, 
 B. Peng, A. Petrone, T. Henderson, D. Ranasinghe, V. G. Zakrzewski, 
 J. Gao, G. Zheng, W. Liang, M. Hada, M. Ehara, K. Toyota, R. Fukuda, 
 J. Hasegawa, M. Ishida, T. Nakajima, Y. Honda, O. Kitao, H. Nakai, 
 T. Vreven, K. Throssell, J. A. Montgomery, Jr., J. E. Peralta, 
 F. Ogliaro, M. J. Bearpark, J. J. Heyd, E. N. Brothers, K. N. Kudin, 
 V. N. Staroverov, T. A. Keith, R. Kobayashi, J. Normand, 
 K. Raghavachari, A. P. Rendell, J. C. Burant, S. S. Iyengar, 
 M. Cossi, J. M. Millam, M. Klene, R. Cammi, R. L. Martin, O. Farkas, 
 J. B. Foresman, and D. J. Fox, Gaussian, Inc., Wallingford CT, 2023.
 
 *******************************************
 Gaussian DV:  ES64L-GDVRevJ.28+ 16-Apr-2024
                 20-Oct-2025 
 *******************************************
 %chk=gdv.chk
 %mem=32GB
 %nproc=12
 Will use up to   12 processors via shared memory.
 ----------------------------------------------------------------------
 #P ucis(mo,nstates=15)/cc-pVTZ extrabasis gfprint nosymm int(acc2e=16)
  SCF(NoVarAcc,NoIncFock,MaxCYC=64) IOp(3/196=1) IOp(3/33=1) Pop=Full I
 Op(3/117=1,3/194=10003501,3/195=5,6/18=1,8/10=91,8/37=2,8/38=-25,9/127
 =2) OUTPUT=(faf,i4lab,Files=(514,619,751,870,1,2,3,4,5,6,7,8,9,10,11,1
 2,13,14))
 ----------------------------------------------------------------------
 1/37=-1,38=1,172=1/1;
 2/12=2,15=1/2;
 3/5=16,6=1,10=1,11=2,24=100,25=1,27=16,30=1,33=1,116=2,117=1,160=20,194=10003501,195=5,196=1/1,2,3,8;
 4//1;
 5/5=100002,7=64,38=1,87=16/2;
 8/6=1,10=91,37=2,38=-25,87=16/1,4;
 9/41=15,42=3,87=16,127=2/14;
 6/7=3,18=1,87=16,125=20/1;
 99/5=1,6=100000,9=1,125=20/99;
 Leave Link    1 at Mon Oct 20 07:05:57 2025, MaxMem=  4294967296 cpu:               0.1 elap:               0.1
 (Enter /home/andy/gdvj28p/gdv/l101.exe)
 -------------------
 Title Card Required
 -------------------
 Symbolic Z-matrix:
 Charge =     0 Multiplicity =     1
 F                     0.        0.       -0.456 
 H                     0.        0.        0.456 
 
 ITRead=  0  0
 MicOpt= -1 -1
 NAtoms=      2 NQM=        2 NQMF=       0 NMMI=      0 NMMIF=      0
                NMic=       0 NMicF=      0.
                    Isotopes and Nuclear Properties:
 (Nuclear quadrupole moments (NQMom) in fm**2, nuclear magnetic moments (NMagM)
  in nuclear magnetons)

  Atom         1           2
 IAtWgt=          19           1
 AtmWgt=  18.9984032   1.0078250
 NucSpn=           1           1
 AtZEff=   -0.000000   -0.000000
 NQMom=    0.0000000   0.0000000
 NMagM=    2.6288670   2.7928460
 AtZNuc=   9.0000000   1.0000000
 Leave Link  101 at Mon Oct 20 07:05:57 2025, MaxMem=  4294967296 cpu:               0.2 elap:               0.2
 (Enter /home/andy/gdvj28p/gdv/l202.exe)
                          Input orientation:                          
 ---------------------------------------------------------------------
 Center     Atomic      Atomic             Coordinates (Angstroms)
 Number     Number       Type             X           Y           Z
 ---------------------------------------------------------------------
      1          9           0        0.000000    0.000000   -0.456000
      2          1           0        0.000000    0.000000    0.456000
 ---------------------------------------------------------------------
 Symmetry turned off by external request.
 Stoichiometry    FH
 Framework group  C*V[C*(HF)]
 Deg. of freedom     1
 Full point group                 C*V     NOp   4
 Rotational constants (GHZ):           0.0000000         634.8783222         634.8783222
 Leave Link  202 at Mon Oct 20 07:05:57 2025, MaxMem=  4294967296 cpu:               0.0 elap:               0.0
 (Enter /home/andy/gdvj28p/gdv/l301.exe)
                         Coordinates in L301:                         
 ---------------------------------------------------------------------
 Center     Atomic      Atomic             Coordinates (Angstroms)
 Number     Number       Type             X           Y           Z
 ---------------------------------------------------------------------
      1          9           0        0.000000    0.000000   -0.456000
      2          1           0        0.000000    0.000000    0.456000
 ---------------------------------------------------------------------
 Standard basis: CC-pVTZ (5D, 7F)
 AtmSel:  Line="F H 0"
 AtmSel:  NamVal=GCentL NAtLst=     2 NIVal=     0 NNoVal=     0:
 AtmSel:  IAtLst=      1      2
 Centers:       1      2
 s 1 1.00
     Exponent=  2.5600000000D-02 Coefficients=  1.0000000000D+00
 s 1 1.00
     Exponent=  1.2800000000D-02 Coefficients=  1.0000000000D+00
 s 1 1.00
     Exponent=  6.4000000000D-03 Coefficients=  1.0000000000D+00
 p 1 1.00
     Exponent=  2.5600000000D-02 Coefficients=  1.0000000000D+00
 p 1 1.00
     Exponent=  1.2800000000D-02 Coefficients=  1.0000000000D+00
 d 1 1.00
     Exponent=  5.1200000000D-02 Coefficients=  1.0000000000D+00
 d 1 1.00
     Exponent=  2.5600000000D-02 Coefficients=  1.0000000000D+00
 d 1 1.00
     Exponent=  1.2800000000D-02 Coefficients=  1.0000000000D+00
 f 1 1.00
     Exponent=  2.5600000000D-02 Coefficients=  1.0000000000D+00
 ****
 FixB: optimizing general contractions.
 Ernie: Thresh=  0.10000D-02 Tol=  0.10000D-05 Strict=F.
 IA=     1 ShT= 0 ShC= 0 NL=   7 NS=   5.
 IA=     1 L=0 SC=0 ISt=    1 NBk=    2 NP=    8 IndPr=    0.
 DoElim1:  L=0 select primitive    2 from    2 using    1 C= 3.92D-03
 DoElim2:  L=0 select primitive    8 from    1 using    2 C= 6.03D-01
 Delete L=0 primitive    2 from    2 C=  1.30D-20.
 Delete L=0 primitive    1 from    2 C=  8.65D-07.
 Delete L=0 primitive    8 from    1 C=  3.48D-19.
 IA=     1 L=0 SC=0 ISt=    0 NBk=    0 NP=    0 IndPr=   13.
 IA=     1 ShT= 1 ShC= 1 NL=   5 NS=   4.
 IA=     1 L=1 SC=1 ISt=    0 NBk=    0 NP=    0 IndPr=    0.
 IA=     1 ShT= 2 ShC= 2 NL=   5 NS=   5.
 IA=     1 L=2 SC=2 ISt=    0 NBk=    0 NP=    0 IndPr=    0.
 IA=     1 ShT= 3 ShC= 3 NL=   2 NS=   2.
 IA=     1 L=3 SC=3 ISt=    0 NBk=    0 NP=    0 IndPr=    0.
 IA=     2 ShT= 0 ShC= 0 NL=   6 NS=   5.
 IA=     2 L=0 SC=0 ISt=    0 NBk=    0 NP=    0 IndPr=    0.
 IA=     2 ShT= 1 ShC= 1 NL=   4 NS=   4.
 IA=     2 L=1 SC=1 ISt=    0 NBk=    0 NP=    0 IndPr=    0.
 IA=     2 ShT= 2 ShC= 2 NL=   4 NS=   4.
 IA=     2 L=2 SC=2 ISt=    0 NBk=    0 NP=    0 IndPr=    0.
 IA=     2 ShT= 3 ShC= 3 NL=   1 NS=   1.
 IA=     2 L=3 SC=3 ISt=    0 NBk=    0 NP=    0 IndPr=    0.
 Ernie:  3 primitive shells out of 52 were deleted.
   106 AO functions
 AO basis set (Overlap normalization):
 Atom F1       Shell     1 S   7     bf    1 -     1          0.000000000000          0.000000000000         -0.861715112802
      0.1950000000D+05  0.5190024441D-03
      0.2923000000D+04  0.4015781354D-02
      0.6645000000D+03  0.2067746110D-01
      0.1875000000D+03  0.8086901703D-01
      0.6062000000D+02  0.2358075463D+00
      0.2142000000D+02  0.4425823060D+00
      0.7950000000D+01  0.3569628672D+00
 Atom F1       Shell     2 S   6     bf    2 -     2          0.000000000000          0.000000000000         -0.861715112802
      0.6645000000D+03 -0.3735980873D-04
      0.1875000000D+03 -0.1277472297D-02
      0.6062000000D+02 -0.1082201399D-01
      0.2142000000D+02 -0.7004820894D-01
      0.7950000000D+01 -0.1697466078D+00
      0.8815000000D+00  0.1073026608D+01
 Atom F1       Shell     3 S   1     bf    3 -     3          0.000000000000          0.000000000000         -0.861715112802
      0.2257000000D+01  0.1000000000D+01
 Atom F1       Shell     4 S   1     bf    4 -     4          0.000000000000          0.000000000000         -0.861715112802
      0.3041000000D+00  0.1000000000D+01
 Atom F1       Shell     5 S   1     bf    5 -     5          0.000000000000          0.000000000000         -0.861715112802
      0.2560000000D-01  0.1000000000D+01
 Atom F1       Shell     6 S   1     bf    6 -     6          0.000000000000          0.000000000000         -0.861715112802
      0.1280000000D-01  0.1000000000D+01
 Atom F1       Shell     7 S   1     bf    7 -     7          0.000000000000          0.000000000000         -0.861715112802
      0.6400000000D-02  0.1000000000D+01
 Atom F1       Shell     8 P   3     bf    8 -    10          0.000000000000          0.000000000000         -0.861715112802
      0.4388000000D+02  0.4190462069D-01
      0.9926000000D+01  0.2626978417D+00
      0.2930000000D+01  0.7977593735D+00
 Atom F1       Shell     9 P   1     bf   11 -    13          0.000000000000          0.000000000000         -0.861715112802
      0.9132000000D+00  0.1000000000D+01
 Atom F1       Shell    10 P   1     bf   14 -    16          0.000000000000          0.000000000000         -0.861715112802
      0.2672000000D+00  0.1000000000D+01
 Atom F1       Shell    11 P   1     bf   17 -    19          0.000000000000          0.000000000000         -0.861715112802
      0.2560000000D-01  0.1000000000D+01
 Atom F1       Shell    12 P   1     bf   20 -    22          0.000000000000          0.000000000000         -0.861715112802
      0.1280000000D-01  0.1000000000D+01
 Atom F1       Shell    13 D   1     bf   23 -    27          0.000000000000          0.000000000000         -0.861715112802
      0.3107000000D+01  0.1000000000D+01
 Atom F1       Shell    14 D   1     bf   28 -    32          0.000000000000          0.000000000000         -0.861715112802
      0.8550000000D+00  0.1000000000D+01
 Atom F1       Shell    15 D   1     bf   33 -    37          0.000000000000          0.000000000000         -0.861715112802
      0.5120000000D-01  0.1000000000D+01
 Atom F1       Shell    16 D   1     bf   38 -    42          0.000000000000          0.000000000000         -0.861715112802
      0.2560000000D-01  0.1000000000D+01
 Atom F1       Shell    17 D   1     bf   43 -    47          0.000000000000          0.000000000000         -0.861715112802
      0.1280000000D-01  0.1000000000D+01
 Atom F1       Shell    18 F   1     bf   48 -    54          0.000000000000          0.000000000000         -0.861715112802
      0.1917000000D+01  0.1000000000D+01
 Atom F1       Shell    19 F   1     bf   55 -    61          0.000000000000          0.000000000000         -0.861715112802
      0.2560000000D-01  0.1000000000D+01
 Atom H2       Shell    20 S   3     bf   62 -    62          0.000000000000          0.000000000000          0.861715112802
      0.3387000000D+02  0.2549486323D-01
      0.5095000000D+01  0.1903627659D+00
      0.1159000000D+01  0.8521620222D+00
 Atom H2       Shell    21 S   1     bf   63 -    63          0.000000000000          0.000000000000          0.861715112802
      0.3258000000D+00  0.1000000000D+01
 Atom H2       Shell    22 S   1     bf   64 -    64          0.000000000000          0.000000000000          0.861715112802
      0.1027000000D+00  0.1000000000D+01
 Atom H2       Shell    23 S   1     bf   65 -    65          0.000000000000          0.000000000000          0.861715112802
      0.2560000000D-01  0.1000000000D+01
 Atom H2       Shell    24 S   1     bf   66 -    66          0.000000000000          0.000000000000          0.861715112802
      0.1280000000D-01  0.1000000000D+01
 Atom H2       Shell    25 S   1     bf   67 -    67          0.000000000000          0.000000000000          0.861715112802
      0.6400000000D-02  0.1000000000D+01
 Atom H2       Shell    26 P   1     bf   68 -    70          0.000000000000          0.000000000000          0.861715112802
      0.1407000000D+01  0.1000000000D+01
 Atom H2       Shell    27 P   1     bf   71 -    73          0.000000000000          0.000000000000          0.861715112802
      0.3880000000D+00  0.1000000000D+01
 Atom H2       Shell    28 P   1     bf   74 -    76          0.000000000000          0.000000000000          0.861715112802
      0.2560000000D-01  0.1000000000D+01
 Atom H2       Shell    29 P   1     bf   77 -    79          0.000000000000          0.000000000000          0.861715112802
      0.1280000000D-01  0.1000000000D+01
 Atom H2       Shell    30 D   1     bf   80 -    84          0.000000000000          0.000000000000          0.861715112802
      0.1057000000D+01  0.1000000000D+01
 Atom H2       Shell    31 D   1     bf   85 -    89          0.000000000000          0.000000000000          0.861715112802
      0.5120000000D-01  0.1000000000D+01
 Atom H2       Shell    32 D   1     bf   90 -    94          0.000000000000          0.000000000000          0.861715112802
      0.2560000000D-01  0.1000000000D+01
 Atom H2       Shell    33 D   1     bf   95 -    99          0.000000000000          0.000000000000          0.861715112802
      0.1280000000D-01  0.1000000000D+01
 Atom H2       Shell    34 F   1     bf  100 -   106          0.000000000000          0.000000000000          0.861715112802
      0.2560000000D-01  0.1000000000D+01
 LdAtmC:  AtmChg=     9.000000     1.000000
 GetPMM: IRwPM=    824 LRwPM=      0 LPMAll=      2
 AtZEff=     -6.7500000     -1.0000000
   106 basis functions,   143 primitive gaussians,   124 cartesian basis functions
     5 alpha electrons        5 beta electrons
       nuclear repulsion energy         5.2221435288 Hartrees.
 IS=     1 IAt=     1 ISR=     1 T=0 IP=      1 IndIP=      1 IndIPD=      0 C=  6.103873D-01  0.000000D+00                             NZ=T
 IS=     1 IAt=     1 ISR=     1 T=0 IP=      2 IndIP=      2 IndIPD=      1 C=  1.137763D+00  0.000000D+00                             NZ=T
 IS=     1 IAt=     1 ISR=     1 T=0 IP=      3 IndIP=      3 IndIPD=      2 C=  1.928762D+00  0.000000D+00                             NZ=T
 IS=     1 IAt=     1 ISR=     1 T=0 IP=      4 IndIP=      4 IndIPD=      3 C=  2.920406D+00  0.000000D+00                             NZ=T
 IS=     1 IAt=     1 ISR=     1 T=0 IP=      5 IndIP=      5 IndIPD=      4 C=  3.651151D+00  0.000000D+00                             NZ=T
 IS=     1 IAt=     1 ISR=     1 T=0 IP=      6 IndIP=      6 IndIPD=      5 C=  3.140644D+00  0.000000D+00                             NZ=T
 IS=     1 IAt=     1 ISR=     1 T=0 IP=      7 IndIP=      7 IndIPD=      6 C=  1.204505D+00  0.000000D+00                             NZ=T
 IS=     2 IAt=     1 ISR=     2 T=0 IP=      1 IndIP=      8 IndIPD=      0 C= -3.484865D-03  0.000000D+00                             NZ=T
 IS=     2 IAt=     1 ISR=     2 T=0 IP=      2 IndIP=      9 IndIPD=      1 C= -4.613309D-02  0.000000D+00                             NZ=T
 IS=     2 IAt=     1 ISR=     2 T=0 IP=      3 IndIP=     10 IndIPD=      2 C= -1.675638D-01  0.000000D+00                             NZ=T
 IS=     2 IAt=     1 ISR=     2 T=0 IP=      4 IndIP=     11 IndIPD=      3 C= -4.970748D-01  0.000000D+00                             NZ=T
 IS=     2 IAt=     1 ISR=     2 T=0 IP=      5 IndIP=     12 IndIPD=      4 C= -5.727783D-01  0.000000D+00                             NZ=T
 IS=     2 IAt=     1 ISR=     2 T=0 IP=      6 IndIP=     13 IndIPD=      5 C=  6.957245D-01  0.000000D+00                             NZ=T
 IS=     3 IAt=     1 ISR=     3 T=0 IP=      1 IndIP=     14 IndIPD=      0 C=  1.312377D+00  0.000000D+00                             NZ=T
 IS=     4 IAt=     1 ISR=     4 T=0 IP=      1 IndIP=     15 IndIPD=      0 C=  2.918585D-01  0.000000D+00                             NZ=T
 IS=     5 IAt=     1 ISR=     5 T=0 IP=      1 IndIP=     16 IndIPD=      0 C=  4.561315D-02  0.000000D+00                             NZ=T
 IS=     6 IAt=     1 ISR=     6 T=0 IP=      1 IndIP=     17 IndIPD=      0 C=  2.712174D-02  0.000000D+00                             NZ=T
 IS=     7 IAt=     1 ISR=     7 T=0 IP=      1 IndIP=     18 IndIPD=      0 C=  1.612668D-02  0.000000D+00                             NZ=T
 IS=     8 IAt=     1 ISR=     8 T=1 IP=      1 IndIP=     19 IndIPD=      0 C=  0.000000D+00  6.745828D+00                             NZ=T
 IS=     8 IAt=     1 ISR=     8 T=1 IP=      2 IndIP=     20 IndIPD=      1 C=  0.000000D+00  6.597273D+00                             NZ=T
 IS=     8 IAt=     1 ISR=     8 T=1 IP=      3 IndIP=     21 IndIPD=      2 C=  0.000000D+00  4.359097D+00                             NZ=T
 IS=     9 IAt=     1 ISR=     9 T=1 IP=      1 IndIP=     22 IndIPD=      0 C=  0.000000D+00  1.272470D+00                             NZ=T
 IS=    10 IAt=     1 ISR=    10 T=1 IP=      1 IndIP=     23 IndIPD=      0 C=  0.000000D+00  2.738329D-01                             NZ=T
 IS=    11 IAt=     1 ISR=    11 T=1 IP=      1 IndIP=     24 IndIPD=      0 C=  0.000000D+00  1.459621D-02                             NZ=T
 IS=    12 IAt=     1 ISR=    12 T=1 IP=      1 IndIP=     25 IndIPD=      0 C=  0.000000D+00  6.136950D-03                             NZ=T
 IS=    13 IAt=     1 ISR=    13 T=2 IP=      1 IndIP=     26 IndIPD=      1 C=  0.000000D+00  0.000000D+00  1.196759D+01  0.000000D+00 NZ=T
 IS=    14 IAt=     1 ISR=    14 T=2 IP=      1 IndIP=     27 IndIPD=      2 C=  0.000000D+00  0.000000D+00  1.251267D+00  0.000000D+00 NZ=T
 IS=    15 IAt=     1 ISR=    15 T=2 IP=      1 IndIP=     28 IndIPD=      3 C=  0.000000D+00  0.000000D+00  9.070514D-03  0.000000D+00 NZ=T
 IS=    16 IAt=     1 ISR=    16 T=2 IP=      1 IndIP=     29 IndIPD=      4 C=  0.000000D+00  0.000000D+00  2.696680D-03  0.000000D+00 NZ=T
 IS=    17 IAt=     1 ISR=    17 T=2 IP=      1 IndIP=     30 IndIPD=      5 C=  0.000000D+00  0.000000D+00  8.017277D-04  0.000000D+00 NZ=T
 IS=    18 IAt=     1 ISR=    18 T=3 IP=      1 IndIP=     31 IndIPD=      6 C=  0.000000D+00  0.000000D+00  0.000000D+00  6.365818D+00 NZ=T
 IS=    19 IAt=     1 ISR=    19 T=3 IP=      1 IndIP=     32 IndIPD=      7 C=  0.000000D+00  0.000000D+00  0.000000D+00  3.859174D-04 NZ=T
 IS=    20 IAt=     2 ISR=     1 T=0 IP=      1 IndIP=     33 IndIPD=      0 C=  2.551081D-01  0.000000D+00                             NZ=T
 IS=    20 IAt=     2 ISR=     1 T=0 IP=      2 IndIP=     34 IndIPD=      1 C=  4.600979D-01  0.000000D+00                             NZ=T
 IS=    20 IAt=     2 ISR=     1 T=0 IP=      3 IndIP=     35 IndIPD=      2 C=  6.784141D-01  0.000000D+00                             NZ=T
 IS=    21 IAt=     2 ISR=     2 T=0 IP=      1 IndIP=     36 IndIPD=      0 C=  3.073431D-01  0.000000D+00                             NZ=T
 IS=    22 IAt=     2 ISR=     3 T=0 IP=      1 IndIP=     37 IndIPD=      0 C=  1.292968D-01  0.000000D+00                             NZ=T
 IS=    23 IAt=     2 ISR=     4 T=0 IP=      1 IndIP=     38 IndIPD=      0 C=  4.561315D-02  0.000000D+00                             NZ=T
 IS=    24 IAt=     2 ISR=     5 T=0 IP=      1 IndIP=     39 IndIPD=      0 C=  2.712174D-02  0.000000D+00                             NZ=T
 IS=    25 IAt=     2 ISR=     6 T=0 IP=      1 IndIP=     40 IndIPD=      0 C=  1.612668D-02  0.000000D+00                             NZ=T
 IS=    26 IAt=     2 ISR=     7 T=1 IP=      1 IndIP=     41 IndIPD=      0 C=  0.000000D+00  2.184277D+00                             NZ=T
 IS=    27 IAt=     2 ISR=     8 T=1 IP=      1 IndIP=     42 IndIPD=      0 C=  0.000000D+00  4.364955D-01                             NZ=T
 IS=    28 IAt=     2 ISR=     9 T=1 IP=      1 IndIP=     43 IndIPD=      0 C=  0.000000D+00  1.459621D-02                             NZ=T
 IS=    29 IAt=     2 ISR=    10 T=1 IP=      1 IndIP=     44 IndIPD=      0 C=  0.000000D+00  6.136950D-03                             NZ=T
 IS=    30 IAt=     2 ISR=    11 T=2 IP=      1 IndIP=     45 IndIPD=      8 C=  0.000000D+00  0.000000D+00  1.813597D+00  0.000000D+00 NZ=T
 IS=    31 IAt=     2 ISR=    12 T=2 IP=      1 IndIP=     46 IndIPD=      9 C=  0.000000D+00  0.000000D+00  9.070514D-03  0.000000D+00 NZ=T
 IS=    32 IAt=     2 ISR=    13 T=2 IP=      1 IndIP=     47 IndIPD=     10 C=  0.000000D+00  0.000000D+00  2.696680D-03  0.000000D+00 NZ=T
 IS=    33 IAt=     2 ISR=    14 T=2 IP=      1 IndIP=     48 IndIPD=     11 C=  0.000000D+00  0.000000D+00  8.017277D-04  0.000000D+00 NZ=T
 IS=    34 IAt=     2 ISR=    15 T=3 IP=      1 IndIP=     49 IndIPD=     12 C=  0.000000D+00  0.000000D+00  0.000000D+00  3.859174D-04 NZ=T
 IExCor=         0 DFT=F Ex=HF Corr=None N6=None ScaHFX=  1.000000
 ScaDFX=  1.000000  1.000000  1.000000  1.000000  1.000000  0.000000
 ScaDFX=  0.000000  0.000000  0.000000  0.000000  0.000000  0.000000
 Grid=UltraFine IRanWt=     -1 IRanGd=            0 ICorTp=0 IEDCtl=  2004
 NAtoms=    2 NActive=    2 NUniq=    2 SFac= 1.00D+00 NAtFMM=   60 NAOKFM=F Big=F
 Integral buffers will be    131072 words long.
 Raffenetti 2 integral format.
 Two-electron integral symmetry is turned off.
 Leave Link  301 at Mon Oct 20 07:05:57 2025, MaxMem=  4294967296 cpu:               0.1 elap:               0.0
 (Enter /home/andy/gdvj28p/gdv/l302.exe)
 GetPMM: IRwPM=    824 LRwPM=      0 LPMAll=      2
 NPDir=0 NMtPBC=     1 NCelOv=     1 NCel=       1 NClECP=     1 NCelD=      1
         NCelK=      1 NCelE2=     1 NClLst=     1 CellRange=     0.0.
 One-electron integrals computed using PRISM.
 Entering OneElI...
 Calculate overlap and kinetic energy integrals
    NBasis = 106  MinDer = 0  MaxDer = 0
 Requested accuracy = 0.1000D-12
 PrmmSu-InSpLW:  IPartL=    0 NPrtUS=   12 NPrtUL=    1 DoSpLW=F IThBeg=    0 IThEnd=   11 NThAct=   12.
 PrSmSu:  IncTry=   512 NBBP=            595 NTPThr=   100 NPartT=   12 Incr=           1 LDynOK=F GPUOK=F.
 PrsmSu:  NPrtUS=  12 ThrOK=T IAlg=1 LenDen=           0 ISkipM=0 DoSpLW=F IThBeg=    0 IThEnd=   11.
 Prism:   IPart=     0 DynPar=F LinDyn=F Incr=           1.
 PRISM was handed   357883316 working-precision words and   595 shell-pairs
 PRISM was handed   357883316 working-precision words and   595 shell-pairs
 PRISM was handed   357883316 working-precision words and   595 shell-pairs
 PRISM was handed   357883316 working-precision words and   595 shell-pairs
 PRISM was handed   357883316 working-precision words and   595 shell-pairs
 PRISM was handed   357883316 working-precision words and   595 shell-pairs
 PRISM was handed   357883316 working-precision words and   595 shell-pairs
 PRISM was handed   357883316 working-precision words and   595 shell-pairs
 PRISM was handed   357883316 working-precision words and   595 shell-pairs
 PRISM was handed   357883316 working-precision words and   595 shell-pairs
 PRISM was handed   357883316 working-precision words and   595 shell-pairs
 PRISM was handed   357883316 working-precision words and   595 shell-pairs
 PrSmSu:  NxtVal=             13.
 *** Overlap *** 
                1             2             3             4             5 
      1  0.100000D+01
      2  0.101098D+00  0.100000D+01
      3  0.531689D+00  0.751929D+00  0.100000D+01
      4  0.147472D+00  0.828011D+00  0.520375D+00  0.100000D+01
      5  0.238974D-01  0.196711D+00  0.966560D-01  0.391570D+00  0.100000D+01
      6  0.142336D-01  0.119575D+00  0.579588D-01  0.247076D+00  0.915452D+00
      7  0.847056D-02  0.718972D-01  0.346088D-01  0.151478D+00  0.715542D+00
      8  0.000000D+00  0.000000D+00  0.000000D+00  0.000000D+00  0.000000D+00
      9  0.000000D+00  0.000000D+00  0.000000D+00  0.000000D+00  0.000000D+00
     10  0.000000D+00  0.000000D+00  0.000000D+00  0.000000D+00  0.000000D+00
     11  0.000000D+00  0.000000D+00  0.000000D+00  0.000000D+00  0.000000D+00
     12  0.000000D+00  0.000000D+00  0.000000D+00  0.000000D+00  0.000000D+00
     13  0.000000D+00  0.000000D+00  0.000000D+00  0.000000D+00  0.000000D+00
     14  0.000000D+00  0.000000D+00  0.000000D+00  0.000000D+00  0.000000D+00
     15  0.000000D+00  0.000000D+00  0.000000D+00  0.000000D+00  0.000000D+00
     16  0.000000D+00  0.000000D+00  0.000000D+00  0.000000D+00  0.000000D+00
     17  0.000000D+00  0.000000D+00  0.000000D+00  0.000000D+00  0.000000D+00
     18  0.000000D+00  0.000000D+00  0.000000D+00  0.000000D+00  0.000000D+00
     19  0.000000D+00  0.000000D+00  0.000000D+00  0.000000D+00  0.000000D+00
     20  0.000000D+00  0.000000D+00  0.000000D+00  0.000000D+00  0.000000D+00
     21  0.000000D+00  0.000000D+00  0.000000D+00  0.000000D+00  0.000000D+00
     22  0.000000D+00  0.000000D+00  0.000000D+00  0.000000D+00  0.000000D+00
     23  0.000000D+00  0.000000D+00  0.000000D+00  0.000000D+00  0.000000D+00
     24  0.000000D+00  0.000000D+00  0.000000D+00  0.000000D+00  0.000000D+00
     25  0.000000D+00  0.000000D+00  0.000000D+00  0.000000D+00  0.000000D+00
     26  0.000000D+00  0.000000D+00  0.000000D+00  0.000000D+00  0.000000D+00
     27  0.000000D+00  0.000000D+00  0.000000D+00  0.000000D+00  0.000000D+00
     28  0.000000D+00  0.000000D+00  0.000000D+00  0.000000D+00  0.000000D+00
     29  0.000000D+00  0.000000D+00  0.000000D+00  0.000000D+00  0.000000D+00
     30  0.000000D+00  0.000000D+00  0.000000D+00  0.000000D+00  0.000000D+00
     31  0.000000D+00  0.000000D+00  0.000000D+00  0.000000D+00  0.000000D+00
     32  0.000000D+00  0.000000D+00  0.000000D+00  0.000000D+00  0.000000D+00
     33  0.000000D+00  0.000000D+00  0.000000D+00  0.000000D+00  0.000000D+00
     34  0.000000D+00  0.000000D+00  0.000000D+00  0.000000D+00  0.000000D+00
     35  0.000000D+00  0.000000D+00  0.000000D+00  0.000000D+00  0.000000D+00
     36  0.000000D+00  0.000000D+00  0.000000D+00  0.000000D+00  0.000000D+00
     37  0.000000D+00  0.000000D+00  0.000000D+00  0.000000D+00  0.000000D+00
     38  0.000000D+00  0.000000D+00  0.000000D+00  0.000000D+00  0.000000D+00
     39  0.000000D+00  0.000000D+00  0.000000D+00  0.000000D+00  0.000000D+00
     40  0.000000D+00  0.000000D+00  0.000000D+00  0.000000D+00  0.000000D+00
     41  0.000000D+00  0.000000D+00  0.000000D+00  0.000000D+00  0.000000D+00
     42  0.000000D+00  0.000000D+00  0.000000D+00  0.000000D+00  0.000000D+00
     43  0.000000D+00  0.000000D+00  0.000000D+00  0.000000D+00  0.000000D+00
     44  0.000000D+00  0.000000D+00  0.000000D+00  0.000000D+00  0.000000D+00
     45  0.000000D+00  0.000000D+00  0.000000D+00  0.000000D+00  0.000000D+00
     46  0.000000D+00  0.000000D+00  0.000000D+00  0.000000D+00  0.000000D+00
     47  0.000000D+00  0.000000D+00  0.000000D+00  0.000000D+00  0.000000D+00
     48  0.000000D+00  0.000000D+00  0.000000D+00  0.000000D+00  0.000000D+00
     49  0.000000D+00  0.000000D+00  0.000000D+00  0.000000D+00  0.000000D+00
     50  0.000000D+00  0.000000D+00  0.000000D+00  0.000000D+00  0.000000D+00
     51  0.000000D+00  0.000000D+00  0.000000D+00  0.000000D+00  0.000000D+00
     52  0.000000D+00  0.000000D+00  0.000000D+00  0.000000D+00  0.000000D+00
     53  0.000000D+00  0.000000D+00  0.000000D+00  0.000000D+00  0.000000D+00
     54  0.000000D+00  0.000000D+00  0.000000D+00  0.000000D+00  0.000000D+00
     55  0.000000D+00  0.000000D+00  0.000000D+00  0.000000D+00  0.000000D+00
     56  0.000000D+00  0.000000D+00  0.000000D+00  0.000000D+00  0.000000D+00
     57  0.000000D+00  0.000000D+00  0.000000D+00  0.000000D+00  0.000000D+00
     58  0.000000D+00  0.000000D+00  0.000000D+00  0.000000D+00  0.000000D+00
     59  0.000000D+00  0.000000D+00  0.000000D+00  0.000000D+00  0.000000D+00
     60  0.000000D+00  0.000000D+00  0.000000D+00  0.000000D+00  0.000000D+00
     61  0.000000D+00  0.000000D+00  0.000000D+00  0.000000D+00  0.000000D+00
     62  0.135537D-01  0.212641D+00  0.823966D-01  0.330870D+00  0.133718D+00
     63  0.604421D-01  0.423075D+00  0.232284D+00  0.626210D+00  0.349236D+00
     64  0.495618D-01  0.374168D+00  0.194704D+00  0.644735D+00  0.672402D+00
     65  0.221515D-01  0.182714D+00  0.896554D-01  0.365048D+00  0.962695D+00
     66  0.137032D-01  0.115180D+00  0.558087D-01  0.238225D+00  0.892541D+00
     67  0.831115D-02  0.705534D-01  0.339590D-01  0.148684D+00  0.704742D+00
     68  0.000000D+00  0.000000D+00  0.000000D+00  0.000000D+00  0.000000D+00
     69  0.000000D+00  0.000000D+00  0.000000D+00  0.000000D+00  0.000000D+00
     70 -0.357215D-01 -0.312292D+00 -0.184131D+00 -0.231137D+00 -0.924722D-02
     71  0.000000D+00  0.000000D+00  0.000000D+00  0.000000D+00  0.000000D+00
     72  0.000000D+00  0.000000D+00  0.000000D+00  0.000000D+00  0.000000D+00
     73 -0.119305D+00 -0.596914D+00 -0.407891D+00 -0.562279D+00 -0.413998D-01
     74  0.000000D+00  0.000000D+00  0.000000D+00  0.000000D+00  0.000000D+00
     75  0.000000D+00  0.000000D+00  0.000000D+00  0.000000D+00  0.000000D+00
     76 -0.121889D-01 -0.978209D-01 -0.488902D-01 -0.185691D+00 -0.265462D+00
     77  0.000000D+00  0.000000D+00  0.000000D+00  0.000000D+00  0.000000D+00
     78  0.000000D+00  0.000000D+00  0.000000D+00  0.000000D+00  0.000000D+00
     79 -0.533776D-02 -0.442509D-01 -0.216408D-01 -0.891476D-01 -0.232041D+00
     80  0.117086D+00  0.345667D+00  0.356736D+00  0.136462D+00  0.630584D-03
     81  0.000000D+00  0.000000D+00  0.000000D+00  0.000000D+00  0.000000D+00
     82  0.000000D+00  0.000000D+00  0.000000D+00  0.000000D+00  0.000000D+00
     83  0.000000D+00  0.000000D+00  0.000000D+00  0.000000D+00  0.000000D+00
     84  0.000000D+00  0.000000D+00  0.000000D+00  0.000000D+00  0.000000D+00
     85  0.119823D-01  0.857301D-01  0.462625D-01  0.132965D+00  0.339574D-01
     86  0.000000D+00  0.000000D+00  0.000000D+00  0.000000D+00  0.000000D+00
     87  0.000000D+00  0.000000D+00  0.000000D+00  0.000000D+00  0.000000D+00
     88  0.000000D+00  0.000000D+00  0.000000D+00  0.000000D+00  0.000000D+00
     89  0.000000D+00  0.000000D+00  0.000000D+00  0.000000D+00  0.000000D+00
     90  0.387225D-02  0.302356D-01  0.153924D-01  0.545346D-01  0.422625D-01
     91  0.000000D+00  0.000000D+00  0.000000D+00  0.000000D+00  0.000000D+00
     92  0.000000D+00  0.000000D+00  0.000000D+00  0.000000D+00  0.000000D+00
     93  0.000000D+00  0.000000D+00  0.000000D+00  0.000000D+00  0.000000D+00
     94  0.000000D+00  0.000000D+00  0.000000D+00  0.000000D+00  0.000000D+00
     95  0.120043D-02  0.981532D-02  0.484492D-02  0.192607D-01  0.348291D-01
     96  0.000000D+00  0.000000D+00  0.000000D+00  0.000000D+00  0.000000D+00
     97  0.000000D+00  0.000000D+00  0.000000D+00  0.000000D+00  0.000000D+00
     98  0.000000D+00  0.000000D+00  0.000000D+00  0.000000D+00  0.000000D+00
     99  0.000000D+00  0.000000D+00  0.000000D+00  0.000000D+00  0.000000D+00
    100 -0.952882D-03 -0.723885D-02 -0.375377D-02 -0.124059D-01 -0.521176D-02
    101  0.000000D+00  0.000000D+00  0.000000D+00  0.000000D+00  0.000000D+00
    102  0.000000D+00  0.000000D+00  0.000000D+00  0.000000D+00  0.000000D+00
    103  0.000000D+00  0.000000D+00  0.000000D+00  0.000000D+00  0.000000D+00
    104  0.000000D+00  0.000000D+00  0.000000D+00  0.000000D+00  0.000000D+00
    105  0.000000D+00  0.000000D+00  0.000000D+00  0.000000D+00  0.000000D+00
    106  0.000000D+00  0.000000D+00  0.000000D+00  0.000000D+00  0.000000D+00
                6             7             8             9            10 
      6  0.100000D+01
      7  0.915452D+00  0.100000D+01
      8  0.000000D+00  0.000000D+00  0.100000D+01
      9  0.000000D+00  0.000000D+00  0.000000D+00  0.100000D+01
     10  0.000000D+00  0.000000D+00  0.000000D+00  0.000000D+00  0.100000D+01
     11  0.000000D+00  0.000000D+00  0.595547D+00  0.000000D+00  0.000000D+00
     12  0.000000D+00  0.000000D+00  0.000000D+00  0.595547D+00  0.000000D+00
     13  0.000000D+00  0.000000D+00  0.000000D+00  0.000000D+00  0.595547D+00
     14  0.000000D+00  0.000000D+00  0.197384D+00  0.000000D+00  0.000000D+00
     15  0.000000D+00  0.000000D+00  0.000000D+00  0.197384D+00  0.000000D+00
     16  0.000000D+00  0.000000D+00  0.000000D+00  0.000000D+00  0.197384D+00
     17  0.000000D+00  0.000000D+00  0.126751D-01  0.000000D+00  0.000000D+00
     18  0.000000D+00  0.000000D+00  0.000000D+00  0.126751D-01  0.000000D+00
     19  0.000000D+00  0.000000D+00  0.000000D+00  0.000000D+00  0.126751D-01
     20  0.000000D+00  0.000000D+00  0.538452D-02  0.000000D+00  0.000000D+00
     21  0.000000D+00  0.000000D+00  0.000000D+00  0.538452D-02  0.000000D+00
     22  0.000000D+00  0.000000D+00  0.000000D+00  0.000000D+00  0.538452D-02
     23  0.000000D+00  0.000000D+00  0.000000D+00  0.000000D+00  0.000000D+00
     24  0.000000D+00  0.000000D+00  0.000000D+00  0.000000D+00  0.000000D+00
     25  0.000000D+00  0.000000D+00  0.000000D+00  0.000000D+00  0.000000D+00
     26  0.000000D+00  0.000000D+00  0.000000D+00  0.000000D+00  0.000000D+00
     27  0.000000D+00  0.000000D+00  0.000000D+00  0.000000D+00  0.000000D+00
     28  0.000000D+00  0.000000D+00  0.000000D+00  0.000000D+00  0.000000D+00
     29  0.000000D+00  0.000000D+00  0.000000D+00  0.000000D+00  0.000000D+00
     30  0.000000D+00  0.000000D+00  0.000000D+00  0.000000D+00  0.000000D+00
     31  0.000000D+00  0.000000D+00  0.000000D+00  0.000000D+00  0.000000D+00
     32  0.000000D+00  0.000000D+00  0.000000D+00  0.000000D+00  0.000000D+00
     33  0.000000D+00  0.000000D+00  0.000000D+00  0.000000D+00  0.000000D+00
     34  0.000000D+00  0.000000D+00  0.000000D+00  0.000000D+00  0.000000D+00
     35  0.000000D+00  0.000000D+00  0.000000D+00  0.000000D+00  0.000000D+00
     36  0.000000D+00  0.000000D+00  0.000000D+00  0.000000D+00  0.000000D+00
     37  0.000000D+00  0.000000D+00  0.000000D+00  0.000000D+00  0.000000D+00
     38  0.000000D+00  0.000000D+00  0.000000D+00  0.000000D+00  0.000000D+00
     39  0.000000D+00  0.000000D+00  0.000000D+00  0.000000D+00  0.000000D+00
     40  0.000000D+00  0.000000D+00  0.000000D+00  0.000000D+00  0.000000D+00
     41  0.000000D+00  0.000000D+00  0.000000D+00  0.000000D+00  0.000000D+00
     42  0.000000D+00  0.000000D+00  0.000000D+00  0.000000D+00  0.000000D+00
     43  0.000000D+00  0.000000D+00  0.000000D+00  0.000000D+00  0.000000D+00
     44  0.000000D+00  0.000000D+00  0.000000D+00  0.000000D+00  0.000000D+00
     45  0.000000D+00  0.000000D+00  0.000000D+00  0.000000D+00  0.000000D+00
     46  0.000000D+00  0.000000D+00  0.000000D+00  0.000000D+00  0.000000D+00
     47  0.000000D+00  0.000000D+00  0.000000D+00  0.000000D+00  0.000000D+00
     48  0.000000D+00  0.000000D+00  0.000000D+00  0.000000D+00  0.000000D+00
     49  0.000000D+00  0.000000D+00  0.000000D+00  0.000000D+00  0.000000D+00
     50  0.000000D+00  0.000000D+00  0.000000D+00  0.000000D+00  0.000000D+00
     51  0.000000D+00  0.000000D+00  0.000000D+00  0.000000D+00  0.000000D+00
     52  0.000000D+00  0.000000D+00  0.000000D+00  0.000000D+00  0.000000D+00
     53  0.000000D+00  0.000000D+00  0.000000D+00  0.000000D+00  0.000000D+00
     54  0.000000D+00  0.000000D+00  0.000000D+00  0.000000D+00  0.000000D+00
     55  0.000000D+00  0.000000D+00  0.000000D+00  0.000000D+00  0.000000D+00
     56  0.000000D+00  0.000000D+00  0.000000D+00  0.000000D+00  0.000000D+00
     57  0.000000D+00  0.000000D+00  0.000000D+00  0.000000D+00  0.000000D+00
     58  0.000000D+00  0.000000D+00  0.000000D+00  0.000000D+00  0.000000D+00
     59  0.000000D+00  0.000000D+00  0.000000D+00  0.000000D+00  0.000000D+00
     60  0.000000D+00  0.000000D+00  0.000000D+00  0.000000D+00  0.000000D+00
     61  0.000000D+00  0.000000D+00  0.000000D+00  0.000000D+00  0.000000D+00
     62  0.837737D-01  0.511486D-01  0.000000D+00  0.000000D+00  0.904320D-01
     63  0.227116D+00  0.141481D+00  0.000000D+00  0.000000D+00  0.992442D-01
     64  0.480923D+00  0.316482D+00  0.000000D+00  0.000000D+00  0.278302D-01
     65  0.892541D+00  0.704742D+00  0.000000D+00  0.000000D+00  0.324128D-02
     66  0.981170D+00  0.903924D+00  0.000000D+00  0.000000D+00  0.101089D-02
     67  0.903924D+00  0.990540D+00  0.000000D+00  0.000000D+00  0.307860D-03
     68  0.000000D+00  0.000000D+00  0.426434D-01  0.000000D+00  0.000000D+00
     69  0.000000D+00  0.000000D+00  0.000000D+00  0.426434D-01  0.000000D+00
     70 -0.291758D-02 -0.893862D-03  0.000000D+00  0.000000D+00 -0.202271D+00
     71  0.000000D+00  0.000000D+00  0.103421D+00  0.000000D+00  0.000000D+00
     72  0.000000D+00  0.000000D+00  0.000000D+00  0.103421D+00  0.000000D+00
     73 -0.137823D-01 -0.434370D-02  0.000000D+00  0.000000D+00 -0.108543D+00
     74  0.000000D+00  0.000000D+00  0.117544D-01  0.000000D+00  0.000000D+00
     75  0.000000D+00  0.000000D+00  0.000000D+00  0.117544D-01  0.000000D+00
     76 -0.164078D+00 -0.777328D-01  0.000000D+00  0.000000D+00  0.998161D-02
     77  0.000000D+00  0.000000D+00  0.518446D-02  0.000000D+00  0.000000D+00
     78  0.000000D+00  0.000000D+00  0.000000D+00  0.518446D-02  0.000000D+00
     79 -0.191312D+00 -0.117500D+00  0.000000D+00  0.000000D+00  0.479188D-02
     80  0.101372D-03  0.156788D-04  0.000000D+00  0.000000D+00  0.257315D+00
     81  0.000000D+00  0.000000D+00 -0.164934D+00  0.000000D+00  0.000000D+00
     82  0.000000D+00  0.000000D+00  0.000000D+00 -0.164934D+00  0.000000D+00
     83  0.000000D+00  0.000000D+00  0.000000D+00  0.000000D+00  0.000000D+00
     84  0.000000D+00  0.000000D+00  0.000000D+00  0.000000D+00  0.000000D+00
     85  0.975085D-02  0.212438D-02  0.000000D+00  0.000000D+00 -0.191593D-01
     86  0.000000D+00  0.000000D+00 -0.195112D-01  0.000000D+00  0.000000D+00
     87  0.000000D+00  0.000000D+00  0.000000D+00 -0.195112D-01  0.000000D+00
     88  0.000000D+00  0.000000D+00  0.000000D+00  0.000000D+00  0.000000D+00
     89  0.000000D+00  0.000000D+00  0.000000D+00  0.000000D+00  0.000000D+00
     90  0.174146D-01  0.495014D-02  0.000000D+00  0.000000D+00 -0.686392D-02
     91  0.000000D+00  0.000000D+00 -0.642916D-02  0.000000D+00  0.000000D+00
     92  0.000000D+00  0.000000D+00  0.000000D+00 -0.642916D-02  0.000000D+00
     93  0.000000D+00  0.000000D+00  0.000000D+00  0.000000D+00  0.000000D+00
     94  0.000000D+00  0.000000D+00  0.000000D+00  0.000000D+00  0.000000D+00
     95  0.215368D-01  0.881832D-02  0.000000D+00  0.000000D+00 -0.223686D-02
     96  0.000000D+00  0.000000D+00 -0.201341D-02  0.000000D+00  0.000000D+00
     97  0.000000D+00  0.000000D+00  0.000000D+00 -0.201341D-02  0.000000D+00
     98  0.000000D+00  0.000000D+00  0.000000D+00  0.000000D+00  0.000000D+00
     99  0.000000D+00  0.000000D+00  0.000000D+00  0.000000D+00  0.000000D+00
    100 -0.143169D-02 -0.244178D-03  0.000000D+00  0.000000D+00  0.258691D-02
    101  0.000000D+00  0.000000D+00  0.222401D-02  0.000000D+00  0.000000D+00
    102  0.000000D+00  0.000000D+00  0.000000D+00  0.222401D-02  0.000000D+00
    103  0.000000D+00  0.000000D+00  0.000000D+00  0.000000D+00  0.000000D+00
    104  0.000000D+00  0.000000D+00  0.000000D+00  0.000000D+00  0.000000D+00
    105  0.000000D+00  0.000000D+00  0.000000D+00  0.000000D+00  0.000000D+00
    106  0.000000D+00  0.000000D+00  0.000000D+00  0.000000D+00  0.000000D+00
               11            12            13            14            15 
     11  0.100000D+01
     12  0.000000D+00  0.100000D+01
     13  0.000000D+00  0.000000D+00  0.100000D+01
     14  0.640848D+00  0.000000D+00  0.000000D+00  0.100000D+01
     15  0.000000D+00  0.640848D+00  0.000000D+00  0.000000D+00  0.100000D+01
     16  0.000000D+00  0.000000D+00  0.640848D+00  0.000000D+00  0.000000D+00
     17  0.605549D-01  0.000000D+00  0.000000D+00  0.239879D+00  0.000000D+00
     18  0.000000D+00  0.605549D-01  0.000000D+00  0.000000D+00  0.239879D+00
     19  0.000000D+00  0.000000D+00  0.605549D-01  0.000000D+00  0.000000D+00
     20  0.263492D-01  0.000000D+00  0.000000D+00  0.112782D+00  0.000000D+00
     21  0.000000D+00  0.263492D-01  0.000000D+00  0.000000D+00  0.112782D+00
     22  0.000000D+00  0.000000D+00  0.263492D-01  0.000000D+00  0.000000D+00
     23  0.000000D+00  0.000000D+00  0.000000D+00  0.000000D+00  0.000000D+00
     24  0.000000D+00  0.000000D+00  0.000000D+00  0.000000D+00  0.000000D+00
     25  0.000000D+00  0.000000D+00  0.000000D+00  0.000000D+00  0.000000D+00
     26  0.000000D+00  0.000000D+00  0.000000D+00  0.000000D+00  0.000000D+00
     27  0.000000D+00  0.000000D+00  0.000000D+00  0.000000D+00  0.000000D+00
     28  0.000000D+00  0.000000D+00  0.000000D+00  0.000000D+00  0.000000D+00
     29  0.000000D+00  0.000000D+00  0.000000D+00  0.000000D+00  0.000000D+00
     30  0.000000D+00  0.000000D+00  0.000000D+00  0.000000D+00  0.000000D+00
     31  0.000000D+00  0.000000D+00  0.000000D+00  0.000000D+00  0.000000D+00
     32  0.000000D+00  0.000000D+00  0.000000D+00  0.000000D+00  0.000000D+00
     33  0.000000D+00  0.000000D+00  0.000000D+00  0.000000D+00  0.000000D+00
     34  0.000000D+00  0.000000D+00  0.000000D+00  0.000000D+00  0.000000D+00
     35  0.000000D+00  0.000000D+00  0.000000D+00  0.000000D+00  0.000000D+00
     36  0.000000D+00  0.000000D+00  0.000000D+00  0.000000D+00  0.000000D+00
     37  0.000000D+00  0.000000D+00  0.000000D+00  0.000000D+00  0.000000D+00
     38  0.000000D+00  0.000000D+00  0.000000D+00  0.000000D+00  0.000000D+00
     39  0.000000D+00  0.000000D+00  0.000000D+00  0.000000D+00  0.000000D+00
     40  0.000000D+00  0.000000D+00  0.000000D+00  0.000000D+00  0.000000D+00
     41  0.000000D+00  0.000000D+00  0.000000D+00  0.000000D+00  0.000000D+00
     42  0.000000D+00  0.000000D+00  0.000000D+00  0.000000D+00  0.000000D+00
     43  0.000000D+00  0.000000D+00  0.000000D+00  0.000000D+00  0.000000D+00
     44  0.000000D+00  0.000000D+00  0.000000D+00  0.000000D+00  0.000000D+00
     45  0.000000D+00  0.000000D+00  0.000000D+00  0.000000D+00  0.000000D+00
     46  0.000000D+00  0.000000D+00  0.000000D+00  0.000000D+00  0.000000D+00
     47  0.000000D+00  0.000000D+00  0.000000D+00  0.000000D+00  0.000000D+00
     48  0.000000D+00  0.000000D+00  0.000000D+00  0.000000D+00  0.000000D+00
     49  0.000000D+00  0.000000D+00  0.000000D+00  0.000000D+00  0.000000D+00
     50  0.000000D+00  0.000000D+00  0.000000D+00  0.000000D+00  0.000000D+00
     51  0.000000D+00  0.000000D+00  0.000000D+00  0.000000D+00  0.000000D+00
     52  0.000000D+00  0.000000D+00  0.000000D+00  0.000000D+00  0.000000D+00
     53  0.000000D+00  0.000000D+00  0.000000D+00  0.000000D+00  0.000000D+00
     54  0.000000D+00  0.000000D+00  0.000000D+00  0.000000D+00  0.000000D+00
     55  0.000000D+00  0.000000D+00  0.000000D+00  0.000000D+00  0.000000D+00
     56  0.000000D+00  0.000000D+00  0.000000D+00  0.000000D+00  0.000000D+00
     57  0.000000D+00  0.000000D+00  0.000000D+00  0.000000D+00  0.000000D+00
     58  0.000000D+00  0.000000D+00  0.000000D+00  0.000000D+00  0.000000D+00
     59  0.000000D+00  0.000000D+00  0.000000D+00  0.000000D+00  0.000000D+00
     60  0.000000D+00  0.000000D+00  0.000000D+00  0.000000D+00  0.000000D+00
     61  0.000000D+00  0.000000D+00  0.000000D+00  0.000000D+00  0.000000D+00
     62  0.000000D+00  0.000000D+00  0.374216D+00  0.000000D+00  0.000000D+00
     63  0.000000D+00  0.000000D+00  0.350677D+00  0.000000D+00  0.000000D+00
     64  0.000000D+00  0.000000D+00  0.118498D+00  0.000000D+00  0.000000D+00
     65  0.000000D+00  0.000000D+00  0.155075D-01  0.000000D+00  0.000000D+00
     66  0.000000D+00  0.000000D+00  0.494861D-02  0.000000D+00  0.000000D+00
     67  0.000000D+00  0.000000D+00  0.152509D-02  0.000000D+00  0.000000D+00
     68  0.182177D+00  0.000000D+00  0.000000D+00  0.235671D+00  0.000000D+00
     69  0.000000D+00  0.182177D+00  0.000000D+00  0.000000D+00  0.235671D+00
     70  0.000000D+00  0.000000D+00 -0.417125D+00  0.000000D+00  0.000000D+00
     71  0.356619D+00  0.000000D+00  0.000000D+00  0.598570D+00  0.000000D+00
     72  0.000000D+00  0.356619D+00  0.000000D+00  0.000000D+00  0.598570D+00
     73  0.000000D+00  0.000000D+00 -0.220248D+00  0.000000D+00  0.000000D+00
     74  0.562377D-01  0.000000D+00  0.000000D+00  0.223799D+00  0.000000D+00
     75  0.000000D+00  0.562377D-01  0.000000D+00  0.000000D+00  0.223799D+00
     76  0.000000D+00  0.000000D+00  0.479186D-01  0.000000D+00  0.000000D+00
     77  0.253796D-01  0.000000D+00  0.000000D+00  0.108763D+00  0.000000D+00
     78  0.000000D+00  0.253796D-01  0.000000D+00  0.000000D+00  0.108763D+00
     79  0.000000D+00  0.000000D+00  0.234764D-01  0.000000D+00  0.000000D+00
     80  0.000000D+00  0.000000D+00  0.200122D+00  0.000000D+00  0.000000D+00
     81 -0.380749D+00  0.000000D+00  0.000000D+00 -0.219053D+00  0.000000D+00
     82  0.000000D+00 -0.380749D+00  0.000000D+00  0.000000D+00 -0.219053D+00
     83  0.000000D+00  0.000000D+00  0.000000D+00  0.000000D+00  0.000000D+00
     84  0.000000D+00  0.000000D+00  0.000000D+00  0.000000D+00  0.000000D+00
     85  0.000000D+00  0.000000D+00 -0.851134D-01  0.000000D+00  0.000000D+00
     86 -0.861103D-01  0.000000D+00  0.000000D+00 -0.266546D+00  0.000000D+00
     87  0.000000D+00 -0.861103D-01  0.000000D+00  0.000000D+00 -0.266546D+00
     88  0.000000D+00  0.000000D+00  0.000000D+00  0.000000D+00  0.000000D+00
     89  0.000000D+00  0.000000D+00  0.000000D+00  0.000000D+00  0.000000D+00
     90  0.000000D+00  0.000000D+00 -0.322598D-01  0.000000D+00  0.000000D+00
     91 -0.301692D-01  0.000000D+00  0.000000D+00 -0.112633D+00  0.000000D+00
     92  0.000000D+00 -0.301692D-01  0.000000D+00  0.000000D+00 -0.112633D+00
     93  0.000000D+00  0.000000D+00  0.000000D+00  0.000000D+00  0.000000D+00
     94  0.000000D+00  0.000000D+00  0.000000D+00  0.000000D+00  0.000000D+00
     95  0.000000D+00  0.000000D+00 -0.108478D-01  0.000000D+00  0.000000D+00
     96 -0.976041D-02  0.000000D+00  0.000000D+00 -0.404752D-01  0.000000D+00
     97  0.000000D+00 -0.976041D-02  0.000000D+00  0.000000D+00 -0.404752D-01
     98  0.000000D+00  0.000000D+00  0.000000D+00  0.000000D+00  0.000000D+00
     99  0.000000D+00  0.000000D+00  0.000000D+00  0.000000D+00  0.000000D+00
    100  0.000000D+00  0.000000D+00  0.119183D-01  0.000000D+00  0.000000D+00
    101  0.102360D-01  0.000000D+00  0.000000D+00  0.358514D-01  0.000000D+00
    102  0.000000D+00  0.102360D-01  0.000000D+00  0.000000D+00  0.358514D-01
    103  0.000000D+00  0.000000D+00  0.000000D+00  0.000000D+00  0.000000D+00
    104  0.000000D+00  0.000000D+00  0.000000D+00  0.000000D+00  0.000000D+00
    105  0.000000D+00  0.000000D+00  0.000000D+00  0.000000D+00  0.000000D+00
    106  0.000000D+00  0.000000D+00  0.000000D+00  0.000000D+00  0.000000D+00
               16            17            18            19            20 
     16  0.100000D+01
     17  0.000000D+00  0.100000D+01
     18  0.000000D+00  0.000000D+00  0.100000D+01
     19  0.239879D+00  0.000000D+00  0.000000D+00  0.100000D+01
     20  0.000000D+00  0.863096D+00  0.000000D+00  0.000000D+00  0.100000D+01
     21  0.000000D+00  0.000000D+00  0.863096D+00  0.000000D+00  0.000000D+00
     22  0.112782D+00  0.000000D+00  0.000000D+00  0.863096D+00  0.000000D+00
     23  0.000000D+00  0.000000D+00  0.000000D+00  0.000000D+00  0.000000D+00
     24  0.000000D+00  0.000000D+00  0.000000D+00  0.000000D+00  0.000000D+00
     25  0.000000D+00  0.000000D+00  0.000000D+00  0.000000D+00  0.000000D+00
     26  0.000000D+00  0.000000D+00  0.000000D+00  0.000000D+00  0.000000D+00
     27  0.000000D+00  0.000000D+00  0.000000D+00  0.000000D+00  0.000000D+00
     28  0.000000D+00  0.000000D+00  0.000000D+00  0.000000D+00  0.000000D+00
     29  0.000000D+00  0.000000D+00  0.000000D+00  0.000000D+00  0.000000D+00
     30  0.000000D+00  0.000000D+00  0.000000D+00  0.000000D+00  0.000000D+00
     31  0.000000D+00  0.000000D+00  0.000000D+00  0.000000D+00  0.000000D+00
     32  0.000000D+00  0.000000D+00  0.000000D+00  0.000000D+00  0.000000D+00
     33  0.000000D+00  0.000000D+00  0.000000D+00  0.000000D+00  0.000000D+00
     34  0.000000D+00  0.000000D+00  0.000000D+00  0.000000D+00  0.000000D+00
     35  0.000000D+00  0.000000D+00  0.000000D+00  0.000000D+00  0.000000D+00
     36  0.000000D+00  0.000000D+00  0.000000D+00  0.000000D+00  0.000000D+00
     37  0.000000D+00  0.000000D+00  0.000000D+00  0.000000D+00  0.000000D+00
     38  0.000000D+00  0.000000D+00  0.000000D+00  0.000000D+00  0.000000D+00
     39  0.000000D+00  0.000000D+00  0.000000D+00  0.000000D+00  0.000000D+00
     40  0.000000D+00  0.000000D+00  0.000000D+00  0.000000D+00  0.000000D+00
     41  0.000000D+00  0.000000D+00  0.000000D+00  0.000000D+00  0.000000D+00
     42  0.000000D+00  0.000000D+00  0.000000D+00  0.000000D+00  0.000000D+00
     43  0.000000D+00  0.000000D+00  0.000000D+00  0.000000D+00  0.000000D+00
     44  0.000000D+00  0.000000D+00  0.000000D+00  0.000000D+00  0.000000D+00
     45  0.000000D+00  0.000000D+00  0.000000D+00  0.000000D+00  0.000000D+00
     46  0.000000D+00  0.000000D+00  0.000000D+00  0.000000D+00  0.000000D+00
     47  0.000000D+00  0.000000D+00  0.000000D+00  0.000000D+00  0.000000D+00
     48  0.000000D+00  0.000000D+00  0.000000D+00  0.000000D+00  0.000000D+00
     49  0.000000D+00  0.000000D+00  0.000000D+00  0.000000D+00  0.000000D+00
     50  0.000000D+00  0.000000D+00  0.000000D+00  0.000000D+00  0.000000D+00
     51  0.000000D+00  0.000000D+00  0.000000D+00  0.000000D+00  0.000000D+00
     52  0.000000D+00  0.000000D+00  0.000000D+00  0.000000D+00  0.000000D+00
     53  0.000000D+00  0.000000D+00  0.000000D+00  0.000000D+00  0.000000D+00
     54  0.000000D+00  0.000000D+00  0.000000D+00  0.000000D+00  0.000000D+00
     55  0.000000D+00  0.000000D+00  0.000000D+00  0.000000D+00  0.000000D+00
     56  0.000000D+00  0.000000D+00  0.000000D+00  0.000000D+00  0.000000D+00
     57  0.000000D+00  0.000000D+00  0.000000D+00  0.000000D+00  0.000000D+00
     58  0.000000D+00  0.000000D+00  0.000000D+00  0.000000D+00  0.000000D+00
     59  0.000000D+00  0.000000D+00  0.000000D+00  0.000000D+00  0.000000D+00
     60  0.000000D+00  0.000000D+00  0.000000D+00  0.000000D+00  0.000000D+00
     61  0.000000D+00  0.000000D+00  0.000000D+00  0.000000D+00  0.000000D+00
     62  0.491349D+00  0.000000D+00  0.000000D+00  0.722406D-01  0.000000D+00
     63  0.628311D+00  0.000000D+00  0.000000D+00  0.178571D+00  0.000000D+00
     64  0.336400D+00  0.000000D+00  0.000000D+00  0.296836D+00  0.000000D+00
     65  0.617122D-01  0.000000D+00  0.000000D+00  0.265462D+00  0.000000D+00
     66  0.212070D-01  0.000000D+00  0.000000D+00  0.164078D+00  0.000000D+00
     67  0.679949D-02  0.000000D+00  0.000000D+00  0.777328D-01  0.000000D+00
     68  0.000000D+00  0.335350D-01  0.000000D+00  0.000000D+00  0.149632D-01
     69  0.000000D+00  0.000000D+00  0.335350D-01  0.000000D+00  0.000000D+00
     70 -0.787030D-01  0.000000D+00  0.000000D+00  0.285263D-01  0.000000D+00
     71  0.000000D+00  0.150136D+00  0.000000D+00  0.000000D+00  0.706844D-01
     72  0.000000D+00  0.000000D+00  0.150136D+00  0.000000D+00  0.000000D+00
     73  0.359351D-01  0.000000D+00  0.000000D+00  0.128717D+00  0.000000D+00
     74  0.000000D+00  0.962695D+00  0.000000D+00  0.000000D+00  0.841496D+00
     75  0.000000D+00  0.000000D+00  0.962695D+00  0.000000D+00  0.000000D+00
     76  0.192740D+00  0.000000D+00  0.000000D+00  0.889494D+00  0.000000D+00
     77  0.000000D+00  0.841496D+00  0.000000D+00  0.000000D+00  0.981170D+00
     78  0.000000D+00  0.000000D+00  0.841496D+00  0.000000D+00  0.000000D+00
     79  0.100871D+00  0.000000D+00  0.000000D+00  0.798839D+00  0.000000D+00
     80 -0.927033D-01  0.000000D+00  0.000000D+00 -0.423407D-02  0.000000D+00
     81  0.000000D+00 -0.396086D-02  0.000000D+00  0.000000D+00 -0.900491D-03
     82  0.000000D+00  0.000000D+00 -0.396086D-02  0.000000D+00  0.000000D+00
     83  0.000000D+00  0.000000D+00  0.000000D+00  0.000000D+00  0.000000D+00
     84  0.000000D+00  0.000000D+00  0.000000D+00  0.000000D+00  0.000000D+00
     85 -0.268502D+00  0.000000D+00  0.000000D+00 -0.233807D+00  0.000000D+00
     86  0.000000D+00 -0.213295D+00  0.000000D+00  0.000000D+00 -0.866173D-01
     87  0.000000D+00  0.000000D+00 -0.213295D+00  0.000000D+00  0.000000D+00
     88  0.000000D+00  0.000000D+00  0.000000D+00  0.000000D+00  0.000000D+00
     89  0.000000D+00  0.000000D+00  0.000000D+00  0.000000D+00  0.000000D+00
     90 -0.121033D+00  0.000000D+00  0.000000D+00 -0.294875D+00  0.000000D+00
     91  0.000000D+00 -0.265462D+00  0.000000D+00  0.000000D+00 -0.154694D+00
     92  0.000000D+00  0.000000D+00 -0.265462D+00  0.000000D+00  0.000000D+00
     93  0.000000D+00  0.000000D+00  0.000000D+00  0.000000D+00  0.000000D+00
     94  0.000000D+00  0.000000D+00  0.000000D+00  0.000000D+00  0.000000D+00
     95 -0.450410D-01  0.000000D+00  0.000000D+00 -0.246212D+00  0.000000D+00
     96  0.000000D+00 -0.218771D+00  0.000000D+00  0.000000D+00 -0.191312D+00
     97  0.000000D+00  0.000000D+00 -0.218771D+00  0.000000D+00  0.000000D+00
     98  0.000000D+00  0.000000D+00  0.000000D+00  0.000000D+00  0.000000D+00
     99  0.000000D+00  0.000000D+00  0.000000D+00  0.000000D+00  0.000000D+00
    100  0.418776D-01  0.000000D+00  0.000000D+00  0.552640D-01  0.000000D+00
    101  0.000000D+00  0.462963D-01  0.000000D+00  0.000000D+00  0.179857D-01
    102  0.000000D+00  0.000000D+00  0.462963D-01  0.000000D+00  0.000000D+00
    103  0.000000D+00  0.000000D+00  0.000000D+00  0.000000D+00  0.000000D+00
    104  0.000000D+00  0.000000D+00  0.000000D+00  0.000000D+00  0.000000D+00
    105  0.000000D+00  0.000000D+00  0.000000D+00  0.000000D+00  0.000000D+00
    106  0.000000D+00  0.000000D+00  0.000000D+00  0.000000D+00  0.000000D+00
               21            22            23            24            25 
     21  0.100000D+01
     22  0.000000D+00  0.100000D+01
     23  0.000000D+00  0.000000D+00  0.100000D+01
     24  0.000000D+00  0.000000D+00  0.000000D+00  0.100000D+01
     25  0.000000D+00  0.000000D+00  0.000000D+00  0.000000D+00  0.100000D+01
     26  0.000000D+00  0.000000D+00  0.000000D+00  0.000000D+00  0.000000D+00
     27  0.000000D+00  0.000000D+00  0.000000D+00  0.000000D+00  0.000000D+00
     28  0.000000D+00  0.000000D+00  0.505175D+00  0.000000D+00  0.000000D+00
     29  0.000000D+00  0.000000D+00  0.000000D+00  0.505175D+00  0.000000D+00
     30  0.000000D+00  0.000000D+00  0.000000D+00  0.000000D+00  0.505175D+00
     31  0.000000D+00  0.000000D+00  0.000000D+00  0.000000D+00  0.000000D+00
     32  0.000000D+00  0.000000D+00  0.000000D+00  0.000000D+00  0.000000D+00
     33  0.000000D+00  0.000000D+00  0.809815D-02  0.000000D+00  0.000000D+00
     34  0.000000D+00  0.000000D+00  0.000000D+00  0.809815D-02  0.000000D+00
     35  0.000000D+00  0.000000D+00  0.000000D+00  0.000000D+00  0.809815D-02
     36  0.000000D+00  0.000000D+00  0.000000D+00  0.000000D+00  0.000000D+00
     37  0.000000D+00  0.000000D+00  0.000000D+00  0.000000D+00  0.000000D+00
     38  0.000000D+00  0.000000D+00  0.247716D-02  0.000000D+00  0.000000D+00
     39  0.000000D+00  0.000000D+00  0.000000D+00  0.247716D-02  0.000000D+00
     40  0.000000D+00  0.000000D+00  0.000000D+00  0.000000D+00  0.247716D-02
     41  0.000000D+00  0.000000D+00  0.000000D+00  0.000000D+00  0.000000D+00
     42  0.000000D+00  0.000000D+00  0.000000D+00  0.000000D+00  0.000000D+00
     43  0.000000D+00  0.000000D+00  0.747095D-03  0.000000D+00  0.000000D+00
     44  0.000000D+00  0.000000D+00  0.000000D+00  0.747095D-03  0.000000D+00
     45  0.000000D+00  0.000000D+00  0.000000D+00  0.000000D+00  0.747095D-03
     46  0.000000D+00  0.000000D+00  0.000000D+00  0.000000D+00  0.000000D+00
     47  0.000000D+00  0.000000D+00  0.000000D+00  0.000000D+00  0.000000D+00
     48  0.000000D+00  0.000000D+00  0.000000D+00  0.000000D+00  0.000000D+00
     49  0.000000D+00  0.000000D+00  0.000000D+00  0.000000D+00  0.000000D+00
     50  0.000000D+00  0.000000D+00  0.000000D+00  0.000000D+00  0.000000D+00
     51  0.000000D+00  0.000000D+00  0.000000D+00  0.000000D+00  0.000000D+00
     52  0.000000D+00  0.000000D+00  0.000000D+00  0.000000D+00  0.000000D+00
     53  0.000000D+00  0.000000D+00  0.000000D+00  0.000000D+00  0.000000D+00
     54  0.000000D+00  0.000000D+00  0.000000D+00  0.000000D+00  0.000000D+00
     55  0.000000D+00  0.000000D+00  0.000000D+00  0.000000D+00  0.000000D+00
     56  0.000000D+00  0.000000D+00  0.000000D+00  0.000000D+00  0.000000D+00
     57  0.000000D+00  0.000000D+00  0.000000D+00  0.000000D+00  0.000000D+00
     58  0.000000D+00  0.000000D+00  0.000000D+00  0.000000D+00  0.000000D+00
     59  0.000000D+00  0.000000D+00  0.000000D+00  0.000000D+00  0.000000D+00
     60  0.000000D+00  0.000000D+00  0.000000D+00  0.000000D+00  0.000000D+00
     61  0.000000D+00  0.000000D+00  0.000000D+00  0.000000D+00  0.000000D+00
     62  0.000000D+00  0.323320D-01  0.965576D-01  0.000000D+00  0.000000D+00
     63  0.000000D+00  0.852199D-01  0.358836D-01  0.000000D+00  0.000000D+00
     64  0.000000D+00  0.166760D+00  0.339143D-02  0.000000D+00  0.000000D+00
     65  0.000000D+00  0.232041D+00  0.100848D-03  0.000000D+00  0.000000D+00
     66  0.000000D+00  0.191312D+00  0.157895D-04  0.000000D+00  0.000000D+00
     67  0.000000D+00  0.117500D+00  0.240915D-05  0.000000D+00  0.000000D+00
     68  0.000000D+00  0.000000D+00  0.000000D+00  0.881157D-01  0.000000D+00
     69  0.149632D-01  0.000000D+00  0.000000D+00  0.000000D+00  0.881157D-01
     70  0.000000D+00  0.138357D-01 -0.190927D+00  0.000000D+00  0.000000D+00
     71  0.000000D+00  0.000000D+00  0.000000D+00  0.757646D-01  0.000000D+00
     72  0.706844D-01  0.000000D+00  0.000000D+00  0.000000D+00  0.757646D-01
     73  0.000000D+00  0.654814D-01 -0.214365D-02  0.000000D+00  0.000000D+00
     74  0.000000D+00  0.000000D+00  0.000000D+00  0.633455D-03  0.000000D+00
     75  0.841496D+00  0.000000D+00  0.000000D+00  0.000000D+00  0.633455D-03
     76  0.000000D+00  0.798839D+00  0.676288D-03  0.000000D+00  0.000000D+00
     77  0.000000D+00  0.000000D+00  0.000000D+00  0.140259D-03  0.000000D+00
     78  0.981170D+00  0.000000D+00  0.000000D+00  0.000000D+00  0.140259D-03
     79  0.000000D+00  0.943867D+00  0.155825D-03  0.000000D+00  0.000000D+00
     80  0.000000D+00 -0.100074D-02  0.122363D+00  0.000000D+00  0.000000D+00
     81  0.000000D+00  0.000000D+00  0.000000D+00 -0.217838D+00  0.000000D+00
     82 -0.900491D-03  0.000000D+00  0.000000D+00  0.000000D+00 -0.217838D+00
     83  0.000000D+00  0.000000D+00  0.000000D+00  0.000000D+00  0.000000D+00
     84  0.000000D+00  0.000000D+00  0.000000D+00  0.000000D+00  0.000000D+00
     85  0.000000D+00 -0.969750D-01  0.439908D-02  0.000000D+00  0.000000D+00
     86  0.000000D+00  0.000000D+00  0.000000D+00  0.488645D-02  0.000000D+00
     87 -0.866173D-01  0.000000D+00  0.000000D+00  0.000000D+00  0.488645D-02
     88  0.000000D+00  0.000000D+00  0.000000D+00  0.000000D+00  0.000000D+00
     89  0.000000D+00  0.000000D+00  0.000000D+00  0.000000D+00  0.000000D+00
     90  0.000000D+00 -0.174098D+00  0.185265D-02  0.000000D+00  0.000000D+00
     91  0.000000D+00  0.000000D+00  0.000000D+00  0.195072D-02  0.000000D+00
     92 -0.154694D+00  0.000000D+00  0.000000D+00  0.000000D+00  0.195072D-02
     93  0.000000D+00  0.000000D+00  0.000000D+00  0.000000D+00  0.000000D+00
     94  0.000000D+00  0.000000D+00  0.000000D+00  0.000000D+00  0.000000D+00
     95  0.000000D+00 -0.216709D+00  0.648083D-03  0.000000D+00  0.000000D+00
     96  0.000000D+00  0.000000D+00  0.000000D+00  0.664865D-03  0.000000D+00
     97 -0.191312D+00  0.000000D+00  0.000000D+00  0.000000D+00  0.664865D-03
     98  0.000000D+00  0.000000D+00  0.000000D+00  0.000000D+00  0.000000D+00
     99  0.000000D+00  0.000000D+00  0.000000D+00  0.000000D+00  0.000000D+00
    100  0.000000D+00  0.216556D-01 -0.152059D-02  0.000000D+00  0.000000D+00
    101  0.000000D+00  0.000000D+00  0.000000D+00 -0.146956D-02  0.000000D+00
    102  0.179857D-01  0.000000D+00  0.000000D+00  0.000000D+00 -0.146956D-02
    103  0.000000D+00  0.000000D+00  0.000000D+00  0.000000D+00  0.000000D+00
    104  0.000000D+00  0.000000D+00  0.000000D+00  0.000000D+00  0.000000D+00
    105  0.000000D+00  0.000000D+00  0.000000D+00  0.000000D+00  0.000000D+00
    106  0.000000D+00  0.000000D+00  0.000000D+00  0.000000D+00  0.000000D+00
               26            27            28            29            30 
     26  0.100000D+01
     27  0.000000D+00  0.100000D+01
     28  0.000000D+00  0.000000D+00  0.100000D+01
     29  0.000000D+00  0.000000D+00  0.000000D+00  0.100000D+01
     30  0.000000D+00  0.000000D+00  0.000000D+00  0.000000D+00  0.100000D+01
     31  0.505175D+00  0.000000D+00  0.000000D+00  0.000000D+00  0.000000D+00
     32  0.000000D+00  0.505175D+00  0.000000D+00  0.000000D+00  0.000000D+00
     33  0.000000D+00  0.000000D+00  0.669089D-01  0.000000D+00  0.000000D+00
     34  0.000000D+00  0.000000D+00  0.000000D+00  0.669089D-01  0.000000D+00
     35  0.000000D+00  0.000000D+00  0.000000D+00  0.000000D+00  0.669089D-01
     36  0.809815D-02  0.000000D+00  0.000000D+00  0.000000D+00  0.000000D+00
     37  0.000000D+00  0.809815D-02  0.000000D+00  0.000000D+00  0.000000D+00
     38  0.000000D+00  0.000000D+00  0.219908D-01  0.000000D+00  0.000000D+00
     39  0.000000D+00  0.000000D+00  0.000000D+00  0.219908D-01  0.000000D+00
     40  0.000000D+00  0.000000D+00  0.000000D+00  0.000000D+00  0.219908D-01
     41  0.247716D-02  0.000000D+00  0.000000D+00  0.000000D+00  0.000000D+00
     42  0.000000D+00  0.247716D-02  0.000000D+00  0.000000D+00  0.000000D+00
     43  0.000000D+00  0.000000D+00  0.688168D-02  0.000000D+00  0.000000D+00
     44  0.000000D+00  0.000000D+00  0.000000D+00  0.688168D-02  0.000000D+00
     45  0.000000D+00  0.000000D+00  0.000000D+00  0.000000D+00  0.688168D-02
     46  0.747095D-03  0.000000D+00  0.000000D+00  0.000000D+00  0.000000D+00
     47  0.000000D+00  0.747095D-03  0.000000D+00  0.000000D+00  0.000000D+00
     48  0.000000D+00  0.000000D+00  0.000000D+00  0.000000D+00  0.000000D+00
     49  0.000000D+00  0.000000D+00  0.000000D+00  0.000000D+00  0.000000D+00
     50  0.000000D+00  0.000000D+00  0.000000D+00  0.000000D+00  0.000000D+00
     51  0.000000D+00  0.000000D+00  0.000000D+00  0.000000D+00  0.000000D+00
     52  0.000000D+00  0.000000D+00  0.000000D+00  0.000000D+00  0.000000D+00
     53  0.000000D+00  0.000000D+00  0.000000D+00  0.000000D+00  0.000000D+00
     54  0.000000D+00  0.000000D+00  0.000000D+00  0.000000D+00  0.000000D+00
     55  0.000000D+00  0.000000D+00  0.000000D+00  0.000000D+00  0.000000D+00
     56  0.000000D+00  0.000000D+00  0.000000D+00  0.000000D+00  0.000000D+00
     57  0.000000D+00  0.000000D+00  0.000000D+00  0.000000D+00  0.000000D+00
     58  0.000000D+00  0.000000D+00  0.000000D+00  0.000000D+00  0.000000D+00
     59  0.000000D+00  0.000000D+00  0.000000D+00  0.000000D+00  0.000000D+00
     60  0.000000D+00  0.000000D+00  0.000000D+00  0.000000D+00  0.000000D+00
     61  0.000000D+00  0.000000D+00  0.000000D+00  0.000000D+00  0.000000D+00
     62  0.000000D+00  0.000000D+00  0.433981D+00  0.000000D+00  0.000000D+00
     63  0.000000D+00  0.000000D+00  0.187268D+00  0.000000D+00  0.000000D+00
     64  0.000000D+00  0.000000D+00  0.250044D-01  0.000000D+00  0.000000D+00
     65  0.000000D+00  0.000000D+00  0.896694D-03  0.000000D+00  0.000000D+00
     66  0.000000D+00  0.000000D+00  0.145500D-03  0.000000D+00  0.000000D+00
     67  0.000000D+00  0.000000D+00  0.226129D-04  0.000000D+00  0.000000D+00
     68  0.000000D+00  0.000000D+00  0.000000D+00  0.378314D+00  0.000000D+00
     69  0.000000D+00  0.000000D+00  0.000000D+00  0.000000D+00  0.378314D+00
     70  0.000000D+00  0.000000D+00 -0.253205D+00  0.000000D+00  0.000000D+00
     71  0.000000D+00  0.000000D+00  0.000000D+00  0.372299D+00  0.000000D+00
     72  0.000000D+00  0.000000D+00  0.000000D+00  0.000000D+00  0.372299D+00
     73  0.000000D+00  0.000000D+00  0.891130D-01  0.000000D+00  0.000000D+00
     74  0.000000D+00  0.000000D+00  0.000000D+00  0.563237D-02  0.000000D+00
     75  0.000000D+00  0.000000D+00  0.000000D+00  0.000000D+00  0.563237D-02
     76  0.000000D+00  0.000000D+00  0.602355D-02  0.000000D+00  0.000000D+00
     77  0.000000D+00  0.000000D+00  0.000000D+00  0.129248D-02  0.000000D+00
     78  0.000000D+00  0.000000D+00  0.000000D+00  0.000000D+00  0.129248D-02
     79  0.000000D+00  0.000000D+00  0.143653D-02  0.000000D+00  0.000000D+00
     80  0.000000D+00  0.000000D+00 -0.278921D-01  0.000000D+00  0.000000D+00
     81  0.000000D+00  0.000000D+00  0.000000D+00 -0.435426D+00  0.000000D+00
     82  0.000000D+00  0.000000D+00  0.000000D+00  0.000000D+00 -0.435426D+00
     83  0.591126D-01  0.000000D+00  0.000000D+00  0.000000D+00  0.000000D+00
     84  0.000000D+00  0.591126D-01  0.000000D+00  0.000000D+00  0.000000D+00
     85  0.000000D+00  0.000000D+00  0.373779D-01  0.000000D+00  0.000000D+00
     86  0.000000D+00  0.000000D+00  0.000000D+00  0.413315D-01  0.000000D+00
     87  0.000000D+00  0.000000D+00  0.000000D+00  0.000000D+00  0.413315D-01
     88  0.697287D-02  0.000000D+00  0.000000D+00  0.000000D+00  0.000000D+00
     89  0.000000D+00  0.697287D-02  0.000000D+00  0.000000D+00  0.000000D+00
     90  0.000000D+00  0.000000D+00  0.165529D-01  0.000000D+00  0.000000D+00
     91  0.000000D+00  0.000000D+00  0.000000D+00  0.174098D-01  0.000000D+00
     92  0.000000D+00  0.000000D+00  0.000000D+00  0.000000D+00  0.174098D-01
     93  0.229722D-02  0.000000D+00  0.000000D+00  0.000000D+00  0.000000D+00
     94  0.000000D+00  0.229722D-02  0.000000D+00  0.000000D+00  0.000000D+00
     95  0.000000D+00  0.000000D+00  0.597895D-02  0.000000D+00  0.000000D+00
     96  0.000000D+00  0.000000D+00  0.000000D+00  0.613208D-02  0.000000D+00
     97  0.000000D+00  0.000000D+00  0.000000D+00  0.000000D+00  0.613208D-02
     98  0.719337D-03  0.000000D+00  0.000000D+00  0.000000D+00  0.000000D+00
     99  0.000000D+00  0.719337D-03  0.000000D+00  0.000000D+00  0.000000D+00
    100  0.000000D+00  0.000000D+00 -0.132650D-01  0.000000D+00  0.000000D+00
    101  0.000000D+00  0.000000D+00  0.000000D+00 -0.128133D-01  0.000000D+00
    102  0.000000D+00  0.000000D+00  0.000000D+00  0.000000D+00 -0.128133D-01
    103 -0.125656D-02  0.000000D+00  0.000000D+00  0.000000D+00  0.000000D+00
    104  0.000000D+00 -0.125656D-02  0.000000D+00  0.000000D+00  0.000000D+00
    105  0.000000D+00  0.000000D+00  0.000000D+00  0.000000D+00  0.000000D+00
    106  0.000000D+00  0.000000D+00  0.000000D+00  0.000000D+00  0.000000D+00
               31            32            33            34            35 
     31  0.100000D+01
     32  0.000000D+00  0.100000D+01
     33  0.000000D+00  0.000000D+00  0.100000D+01
     34  0.000000D+00  0.000000D+00  0.000000D+00  0.100000D+01
     35  0.000000D+00  0.000000D+00  0.000000D+00  0.000000D+00  0.100000D+01
     36  0.669089D-01  0.000000D+00  0.000000D+00  0.000000D+00  0.000000D+00
     37  0.000000D+00  0.669089D-01  0.000000D+00  0.000000D+00  0.000000D+00
     38  0.000000D+00  0.000000D+00  0.813735D+00  0.000000D+00  0.000000D+00
     39  0.000000D+00  0.000000D+00  0.000000D+00  0.813735D+00  0.000000D+00
     40  0.000000D+00  0.000000D+00  0.000000D+00  0.000000D+00  0.813735D+00
     41  0.219908D-01  0.000000D+00  0.000000D+00  0.000000D+00  0.000000D+00
     42  0.000000D+00  0.219908D-01  0.000000D+00  0.000000D+00  0.000000D+00
     43  0.000000D+00  0.000000D+00  0.457947D+00  0.000000D+00  0.000000D+00
     44  0.000000D+00  0.000000D+00  0.000000D+00  0.457947D+00  0.000000D+00
     45  0.000000D+00  0.000000D+00  0.000000D+00  0.000000D+00  0.457947D+00
     46  0.688168D-02  0.000000D+00  0.000000D+00  0.000000D+00  0.000000D+00
     47  0.000000D+00  0.688168D-02  0.000000D+00  0.000000D+00  0.000000D+00
     48  0.000000D+00  0.000000D+00  0.000000D+00  0.000000D+00  0.000000D+00
     49  0.000000D+00  0.000000D+00  0.000000D+00  0.000000D+00  0.000000D+00
     50  0.000000D+00  0.000000D+00  0.000000D+00  0.000000D+00  0.000000D+00
     51  0.000000D+00  0.000000D+00  0.000000D+00  0.000000D+00  0.000000D+00
     52  0.000000D+00  0.000000D+00  0.000000D+00  0.000000D+00  0.000000D+00
     53  0.000000D+00  0.000000D+00  0.000000D+00  0.000000D+00  0.000000D+00
     54  0.000000D+00  0.000000D+00  0.000000D+00  0.000000D+00  0.000000D+00
     55  0.000000D+00  0.000000D+00  0.000000D+00  0.000000D+00  0.000000D+00
     56  0.000000D+00  0.000000D+00  0.000000D+00  0.000000D+00  0.000000D+00
     57  0.000000D+00  0.000000D+00  0.000000D+00  0.000000D+00  0.000000D+00
     58  0.000000D+00  0.000000D+00  0.000000D+00  0.000000D+00  0.000000D+00
     59  0.000000D+00  0.000000D+00  0.000000D+00  0.000000D+00  0.000000D+00
     60  0.000000D+00  0.000000D+00  0.000000D+00  0.000000D+00  0.000000D+00
     61  0.000000D+00  0.000000D+00  0.000000D+00  0.000000D+00  0.000000D+00
     62  0.000000D+00  0.000000D+00  0.657627D-01  0.000000D+00  0.000000D+00
     63  0.000000D+00  0.000000D+00  0.130437D+00  0.000000D+00  0.000000D+00
     64  0.000000D+00  0.000000D+00  0.129260D+00  0.000000D+00  0.000000D+00
     65  0.000000D+00  0.000000D+00  0.339574D-01  0.000000D+00  0.000000D+00
     66  0.000000D+00  0.000000D+00  0.975085D-02  0.000000D+00  0.000000D+00
     67  0.000000D+00  0.000000D+00  0.212438D-02  0.000000D+00  0.000000D+00
     68  0.000000D+00  0.000000D+00  0.000000D+00  0.534314D-01  0.000000D+00
     69  0.000000D+00  0.000000D+00  0.000000D+00  0.000000D+00  0.534314D-01
     70  0.000000D+00  0.000000D+00  0.526441D-01  0.000000D+00  0.000000D+00
     71  0.000000D+00  0.000000D+00  0.000000D+00  0.198805D+00  0.000000D+00
     72  0.000000D+00  0.000000D+00  0.000000D+00  0.000000D+00  0.198805D+00
     73  0.000000D+00  0.000000D+00  0.198720D+00  0.000000D+00  0.000000D+00
     74  0.000000D+00  0.000000D+00  0.000000D+00  0.213295D+00  0.000000D+00
     75  0.000000D+00  0.000000D+00  0.000000D+00  0.000000D+00  0.213295D+00
     76  0.000000D+00  0.000000D+00  0.233807D+00  0.000000D+00  0.000000D+00
     77  0.000000D+00  0.000000D+00  0.000000D+00  0.866173D-01  0.000000D+00
     78  0.000000D+00  0.000000D+00  0.000000D+00  0.000000D+00  0.866173D-01
     79  0.000000D+00  0.000000D+00  0.969750D-01  0.000000D+00  0.000000D+00
     80  0.000000D+00  0.000000D+00  0.265970D-01  0.000000D+00  0.000000D+00
     81  0.000000D+00  0.000000D+00  0.000000D+00  0.294442D-01  0.000000D+00
     82  0.000000D+00  0.000000D+00  0.000000D+00  0.000000D+00  0.294442D-01
     83  0.240856D+00  0.000000D+00  0.000000D+00  0.000000D+00  0.000000D+00
     84  0.000000D+00  0.240856D+00  0.000000D+00  0.000000D+00  0.000000D+00
     85  0.000000D+00  0.000000D+00  0.746006D+00  0.000000D+00  0.000000D+00
     86  0.000000D+00  0.000000D+00  0.000000D+00  0.785841D+00  0.000000D+00
     87  0.000000D+00  0.000000D+00  0.000000D+00  0.000000D+00  0.785841D+00
     88  0.579656D-01  0.000000D+00  0.000000D+00  0.000000D+00  0.000000D+00
     89  0.000000D+00  0.579656D-01  0.000000D+00  0.000000D+00  0.000000D+00
     90  0.000000D+00  0.000000D+00  0.671602D+00  0.000000D+00  0.000000D+00
     91  0.000000D+00  0.000000D+00  0.000000D+00  0.695092D+00  0.000000D+00
     92  0.000000D+00  0.000000D+00  0.000000D+00  0.000000D+00  0.695092D+00
     93  0.204257D-01  0.000000D+00  0.000000D+00  0.000000D+00  0.000000D+00
     94  0.000000D+00  0.204257D-01  0.000000D+00  0.000000D+00  0.000000D+00
     95  0.000000D+00  0.000000D+00  0.408746D+00  0.000000D+00  0.000000D+00
     96  0.000000D+00  0.000000D+00  0.000000D+00  0.417206D+00  0.000000D+00
     97  0.000000D+00  0.000000D+00  0.000000D+00  0.000000D+00  0.417206D+00
     98  0.662867D-02  0.000000D+00  0.000000D+00  0.000000D+00  0.000000D+00
     99  0.000000D+00  0.662867D-02  0.000000D+00  0.000000D+00  0.000000D+00
    100  0.000000D+00  0.000000D+00 -0.356202D+00  0.000000D+00  0.000000D+00
    101  0.000000D+00  0.000000D+00  0.000000D+00 -0.341498D+00  0.000000D+00
    102  0.000000D+00  0.000000D+00  0.000000D+00  0.000000D+00 -0.341498D+00
    103 -0.109373D-01  0.000000D+00  0.000000D+00  0.000000D+00  0.000000D+00
    104  0.000000D+00 -0.109373D-01  0.000000D+00  0.000000D+00  0.000000D+00
    105  0.000000D+00  0.000000D+00  0.000000D+00  0.000000D+00  0.000000D+00
    106  0.000000D+00  0.000000D+00  0.000000D+00  0.000000D+00  0.000000D+00
               36            37            38            39            40 
     36  0.100000D+01
     37  0.000000D+00  0.100000D+01
     38  0.000000D+00  0.000000D+00  0.100000D+01
     39  0.000000D+00  0.000000D+00  0.000000D+00  0.100000D+01
     40  0.000000D+00  0.000000D+00  0.000000D+00  0.000000D+00  0.100000D+01
     41  0.813735D+00  0.000000D+00  0.000000D+00  0.000000D+00  0.000000D+00
     42  0.000000D+00  0.813735D+00  0.000000D+00  0.000000D+00  0.000000D+00
     43  0.000000D+00  0.000000D+00  0.813735D+00  0.000000D+00  0.000000D+00
     44  0.000000D+00  0.000000D+00  0.000000D+00  0.813735D+00  0.000000D+00
     45  0.000000D+00  0.000000D+00  0.000000D+00  0.000000D+00  0.813735D+00
     46  0.457947D+00  0.000000D+00  0.000000D+00  0.000000D+00  0.000000D+00
     47  0.000000D+00  0.457947D+00  0.000000D+00  0.000000D+00  0.000000D+00
     48  0.000000D+00  0.000000D+00  0.000000D+00  0.000000D+00  0.000000D+00
     49  0.000000D+00  0.000000D+00  0.000000D+00  0.000000D+00  0.000000D+00
     50  0.000000D+00  0.000000D+00  0.000000D+00  0.000000D+00  0.000000D+00
     51  0.000000D+00  0.000000D+00  0.000000D+00  0.000000D+00  0.000000D+00
     52  0.000000D+00  0.000000D+00  0.000000D+00  0.000000D+00  0.000000D+00
     53  0.000000D+00  0.000000D+00  0.000000D+00  0.000000D+00  0.000000D+00
     54  0.000000D+00  0.000000D+00  0.000000D+00  0.000000D+00  0.000000D+00
     55  0.000000D+00  0.000000D+00  0.000000D+00  0.000000D+00  0.000000D+00
     56  0.000000D+00  0.000000D+00  0.000000D+00  0.000000D+00  0.000000D+00
     57  0.000000D+00  0.000000D+00  0.000000D+00  0.000000D+00  0.000000D+00
     58  0.000000D+00  0.000000D+00  0.000000D+00  0.000000D+00  0.000000D+00
     59  0.000000D+00  0.000000D+00  0.000000D+00  0.000000D+00  0.000000D+00
     60  0.000000D+00  0.000000D+00  0.000000D+00  0.000000D+00  0.000000D+00
     61  0.000000D+00  0.000000D+00  0.000000D+00  0.000000D+00  0.000000D+00
     62  0.000000D+00  0.000000D+00  0.225331D-01  0.000000D+00  0.000000D+00
     63  0.000000D+00  0.000000D+00  0.527162D-01  0.000000D+00  0.000000D+00
     64  0.000000D+00  0.000000D+00  0.756560D-01  0.000000D+00  0.000000D+00
     65  0.000000D+00  0.000000D+00  0.422625D-01  0.000000D+00  0.000000D+00
     66  0.000000D+00  0.000000D+00  0.174146D-01  0.000000D+00  0.000000D+00
     67  0.000000D+00  0.000000D+00  0.495014D-02  0.000000D+00  0.000000D+00
     68  0.000000D+00  0.000000D+00  0.000000D+00  0.181640D-01  0.000000D+00
     69  0.000000D+00  0.000000D+00  0.000000D+00  0.000000D+00  0.181640D-01
     70  0.000000D+00  0.000000D+00  0.194076D-01  0.000000D+00  0.000000D+00
     71  0.000000D+00  0.000000D+00  0.000000D+00  0.776747D-01  0.000000D+00
     72  0.000000D+00  0.000000D+00  0.000000D+00  0.000000D+00  0.776747D-01
     73  0.000000D+00  0.000000D+00  0.832932D-01  0.000000D+00  0.000000D+00
     74  0.000000D+00  0.000000D+00  0.000000D+00  0.265462D+00  0.000000D+00
     75  0.000000D+00  0.000000D+00  0.000000D+00  0.000000D+00  0.265462D+00
     76  0.000000D+00  0.000000D+00  0.294875D+00  0.000000D+00  0.000000D+00
     77  0.000000D+00  0.000000D+00  0.000000D+00  0.154694D+00  0.000000D+00
     78  0.000000D+00  0.000000D+00  0.000000D+00  0.000000D+00  0.154694D+00
     79  0.000000D+00  0.000000D+00  0.174098D+00  0.000000D+00  0.000000D+00
     80  0.000000D+00  0.000000D+00  0.116259D-01  0.000000D+00  0.000000D+00
     81  0.000000D+00  0.000000D+00  0.000000D+00  0.122313D-01  0.000000D+00
     82  0.000000D+00  0.000000D+00  0.000000D+00  0.000000D+00  0.122313D-01
     83  0.414764D-01  0.000000D+00  0.000000D+00  0.000000D+00  0.000000D+00
     84  0.000000D+00  0.414764D-01  0.000000D+00  0.000000D+00  0.000000D+00
     85  0.000000D+00  0.000000D+00  0.671602D+00  0.000000D+00  0.000000D+00
     86  0.000000D+00  0.000000D+00  0.000000D+00  0.695092D+00  0.000000D+00
     87  0.000000D+00  0.000000D+00  0.000000D+00  0.000000D+00  0.695092D+00
     88  0.926782D+00  0.000000D+00  0.000000D+00  0.000000D+00  0.000000D+00
     89  0.000000D+00  0.926782D+00  0.000000D+00  0.000000D+00  0.000000D+00
     90  0.000000D+00  0.000000D+00  0.866949D+00  0.000000D+00  0.000000D+00
     91  0.000000D+00  0.000000D+00  0.000000D+00  0.889494D+00  0.000000D+00
     92  0.000000D+00  0.000000D+00  0.000000D+00  0.000000D+00  0.889494D+00
     93  0.773514D+00  0.000000D+00  0.000000D+00  0.000000D+00  0.000000D+00
     94  0.000000D+00  0.773514D+00  0.000000D+00  0.000000D+00  0.000000D+00
     95  0.000000D+00  0.000000D+00  0.740426D+00  0.000000D+00  0.000000D+00
     96  0.000000D+00  0.000000D+00  0.000000D+00  0.753152D+00  0.000000D+00
     97  0.000000D+00  0.000000D+00  0.000000D+00  0.000000D+00  0.753152D+00
     98  0.444228D+00  0.000000D+00  0.000000D+00  0.000000D+00  0.000000D+00
     99  0.000000D+00  0.444228D+00  0.000000D+00  0.000000D+00  0.000000D+00
    100  0.000000D+00  0.000000D+00 -0.338329D+00  0.000000D+00  0.000000D+00
    101  0.000000D+00  0.000000D+00  0.000000D+00 -0.323020D+00  0.000000D+00
    102  0.000000D+00  0.000000D+00  0.000000D+00  0.000000D+00 -0.323020D+00
    103 -0.284394D+00  0.000000D+00  0.000000D+00  0.000000D+00  0.000000D+00
[...]
     16   0.000000D+00  0.000000D+00  0.567738D-03  0.123678D-01  0.000000D+00
                 6             7             8             9            10 
      1  -0.995310D+02 -0.995300D+02 -0.995300D+02 -0.995243D+02 -0.995243D+02
      2   0.000000D+00  0.000000D+00  0.000000D+00 -0.234713D+00  0.107652D-01
      3   0.000000D+00  0.000000D+00  0.000000D+00 -0.107650D-01 -0.234717D+00
      4   0.000000D+00  0.000000D+00  0.000000D+00  0.000000D+00  0.000000D+00
      5   0.000000D+00  0.000000D+00  0.000000D+00  0.112261D+00 -0.514900D-02
      6   0.000000D+00  0.000000D+00  0.000000D+00  0.514881D-02  0.112265D+00
      7   0.000000D+00  0.000000D+00  0.000000D+00  0.000000D+00  0.000000D+00
      8   0.000000D+00  0.000000D+00  0.000000D+00  0.594887D-02  0.129710D+00
      9   0.000000D+00  0.000000D+00  0.000000D+00 -0.129705D+00  0.594910D-02
     10   0.000000D+00  0.000000D+00  0.000000D+00  0.000000D+00  0.000000D+00
     11   0.000000D+00  0.000000D+00  0.000000D+00  0.000000D+00  0.000000D+00
     12   0.000000D+00  0.000000D+00  0.000000D+00  0.000000D+00  0.000000D+00
     13   0.000000D+00  0.000000D+00  0.000000D+00  0.000000D+00  0.000000D+00
     14   0.000000D+00  0.000000D+00  0.000000D+00  0.000000D+00  0.000000D+00
     15   0.000000D+00  0.000000D+00  0.000000D+00 -0.269635D+00  0.123662D-01
     16   0.000000D+00  0.000000D+00  0.000000D+00 -0.123667D-01 -0.269625D+00
                11            12            13            14            15 
      1  -0.995222D+02 -0.995222D+02 -0.995169D+02 -0.995169D+02 -0.995159D+02
      2   0.000000D+00  0.000000D+00  0.000000D+00  0.000000D+00  0.000000D+00
      3   0.000000D+00  0.000000D+00  0.000000D+00  0.000000D+00  0.000000D+00
      4   0.000000D+00  0.000000D+00  0.000000D+00  0.000000D+00  0.000000D+00
      5   0.000000D+00  0.000000D+00  0.000000D+00  0.000000D+00  0.000000D+00
      6   0.000000D+00  0.000000D+00  0.000000D+00  0.000000D+00  0.000000D+00
      7   0.000000D+00  0.000000D+00  0.000000D+00  0.000000D+00  0.000000D+00
      8   0.000000D+00  0.000000D+00  0.000000D+00  0.000000D+00  0.000000D+00
      9   0.000000D+00  0.000000D+00  0.000000D+00  0.000000D+00  0.000000D+00
     10   0.000000D+00  0.000000D+00  0.000000D+00  0.000000D+00  0.000000D+00
     11   0.000000D+00  0.000000D+00  0.288310D+00  0.385440D-01  0.000000D+00
     12   0.000000D+00  0.000000D+00 -0.288310D+00 -0.385440D-01  0.000000D+00
     13   0.000000D+00  0.000000D+00  0.000000D+00  0.000000D+00  0.000000D+00
     14   0.000000D+00  0.000000D+00 -0.385440D-01  0.288310D+00  0.000000D+00
     15   0.000000D+00  0.000000D+00  0.000000D+00  0.000000D+00  0.000000D+00
     16   0.000000D+00  0.000000D+00  0.000000D+00  0.000000D+00  0.000000D+00

 Test job not archived.
 1\1\GINC-HERMES\SP\UCIS-FC\Gen\F1H1\ANDY\20-Oct-2025\0\\#P ucis(mo,nst
 ates=15)/cc-pVTZ extrabasis gfprint nosymm int(acc2e=16) SCF(NoVarAcc,
 NoIncFock,MaxCYC=64) IOp(3/196=1) IOp(3/33=1) Pop=Full IOp(3/117=1,3/1
 94=10003501,3/195=5,6/18=1,8/10=91,8/37=2,8/38=-25,9/127=2) OUTPUT=(fa
 f,i4lab,Files=(514,619,751,870,1,2,3,4,5,6,7,8,9,10,11,12,13,14))\\Tit
 le Card Required\\0,1\F,0,0.,0.,-0.456\H,0,0.,0.,0.456\\Version=ES64L-
 GDVRevJ.28+\HF=-100.0608396\MP2=-100.2082527\PUHF=-100.0608396\PMP2-0=
 -100.2082527\S2=0.\S2-1=0.\S2A=0.\RMSD=1.437e-09\PG=C*V [C*(H1F1)]\\@


 NOBODY LOSES ALL THE TIME
 I HAD AN UNCLE NAMED
 SOL WHO WAS A BORN FAILURE AND
 NEARLY EVERYBODY SAID HE SHOULD HAVE GONE
 INTO VAUDEVILLE PERHAPS BECAUSE MY UNCLE SOL COULD
 SING MCCANN HE WAS A DIVER ON XMAS EVE LIKE HELL ITSELF WHICH
 MAY OR MAY NOT ACCOUNT FOR THE FACT THAT MY UNCLE
 SOL INDULGED IN THAT POSSIBLY MOST INEXCUSABLE
 OF ALL TO USE A HIGHFALOOTIN PHRASE
 LUXURIES THAT IS OR TO
 WIT FARMING AND BE
 IT NEEDLESSLY
 ADDED
 MY UNCLE SOL'S FARM     
 FAILED BECAUSE THE CHICKENS
 ATE THE VEGETABLES SO
 MY UNCLE SOL HAD A
 CHICKEN FARM TILL THE
 SKUNKS ATE THE CHICKENS WHEN 
 MY UNCLE SOL
 HAD A SKUNK FARM BUT
 THE SKUNKS CAUGHT COLD AND
 DIED AND SO
 MY UNCLE SOL IMITATED THE
 SKUNKS IN A SUBTLE MANNER
 OR BY DROWNING HIMSELF IN THE WATERTANK
 BUT SOMEBODY WHO'D GIVEN MY UNCLE SOL A VICTOR     
 VICTROLA AND RECORDS WHILE HE LIVED PRESENTED TO
 HIM UPON THE AUSPICIOUS OCCASION OF HIS DECEASE A
 SCRUMPTIOUS NOT TO MENTION SPLENDIFEROUS FUNERAL WITH
 TALL BOYS IN BLACK GLOVES AND FLOWERS AND EVERYTHING AND
 I REMEMBER WE ALL CRIED LIKE THE MISSOURI
 WHEN MY UNCLE SOL'S COFFIN LURCHED BECAUSE     
 SOMEBODY PRESSED A BUTTON
 (AND DOWN WENT
 MY UNCLE
 SOL
 AND STARTED A WORM FARM)
           E. E. CUMMINGS
 RW2BAF: Writing unformatted file "MatrixElements.faf"
 Gaussian matrix elements                                         Version   3 NLab=11 I4Labs=T I2Labs=F
 Write SHELL TO ATOM MAP                   from file      0 offset           0 length                  34 to binary array file.
 Write SHELL TYPES                         from file      0 offset           0 length                  34 to binary array file.
 Write NUMBER OF PRIMITIVES PER SHELL      from file      0 offset           0 length                  34 to binary array file.
 Write PRIMITIVE EXPONENTS                 from file      0 offset           0 length                  49 to binary array file.
 Write CONTRACTION COEFFICIENTS            from file      0 offset           0 length                  49 to binary array file.
 Write P(S=P) CONTRACTION COEFFICIENTS     from file      0 offset           0 length                  49 to binary array file.
 Write COORDINATES OF EACH SHELL           from file      0 offset           0 length                 102 to binary array file.
 Write BONDS PER ATOM                      from file      0 offset           0 length                   2 to binary array file.
 Write BONDED ATOMS                        from file      0 offset           0 length                   2 to binary array file.
 Write BOND TYPES                          from file      0 offset           0 length                   2 to binary array file.
 Write ONIOM CHARGE/MULT                   from file      0 offset           0 length                  32 to binary array file.
 Write ONIOM ATOM LAYERS                   from file      0 offset           0 length                   2 to binary array file.
 Write ONIOM ATOM MODIFIERS                from file      0 offset           0 length                   2 to binary array file.
 Write ONIOM ATOM TYPES                    from file      0 offset           0 length                   2 to binary array file.
 Write ONIOM LINK ATOMS                    from file      0 offset           0 length                   2 to binary array file.
 Write ONIOM LINK CHARGES                  from file      0 offset           0 length                   2 to binary array file.
 Write ONIOM LINK DISTANCES                from file      0 offset           0 length                   8 to binary array file.
 Write SYMINF INTEGERS                     from file      0 offset           0 length                  26 to binary array file.
 Write ROTTR TO INPUT ORIENTATION          from file      0 offset           0 length                  12 to binary array file.
 Write TITLE                               from file      0 offset           0 length                   5 to binary array file.
 Write ROUTE                               from file      0 offset           0 length                  73 to binary array file.
 Write INFO1-9                             from file      0 offset           0 length                   9 to binary array file.
 Write METHOD                              from file      0 offset           0 length                   2 to binary array file.
 Write BASIS NAME                          from file      0 offset           0 length                   1 to binary array file.
 Write LINK0 COMMANDS                      from file      0 offset           0 length                   8 to binary array file.
 Write POINT GROUP                         from file      0 offset           0 length                   4 to binary array file.
 Write POINT GROUP DIMENSIONS              from file      0 offset           0 length                   8 to binary array file.
 Write POINT GROUP IRREP NAMES             from file      0 offset           0 length                   8 to binary array file.
 Write POINT GROUP CLASS NAMES             from file      0 offset           0 length                   8 to binary array file.
 Write POINT GROUP GENERATORS              from file      0 offset           0 length                   2 to binary array file.
 Write POINT GROUP CLASS OF OPERATORS      from file      0 offset           0 length                   4 to binary array file.
 Write POINT GROUP ROTATIONS               from file      0 offset           0 length                  48 to binary array file.
 Write POINT GROUP CELL TRANS              from file      0 offset           0 length                  12 to binary array file.
 Write POINT GROUP CHAR TABLE              from file      0 offset           0 length                  16 to binary array file.
 Write POINT GROUP ATOM PERMUTATIONS       from file      0 offset           0 length                   8 to binary array file.
 Write ILSW                                from file      0 offset           0 length                 100 to binary array file.
 Write RLSW                                from file      0 offset           0 length                 100 to binary array file.
 Write GAUSSIAN SCALARS                    from file 100501 offset           0 to binary array file.
 Write OPTIMIZATION FLAGS                  from file      0 offset           0 length                   2 to binary array file.
 Write INTEGER ISO                         from file      0 offset           0 length                   2 to binary array file.
 Write INTEGER SPIN                        from file      0 offset           0 length                   2 to binary array file.
 Write REAL ZEFFECTIVE                     from file      0 offset           0 length                   2 to binary array file.
 Write REAL GFACTOR                        from file      0 offset           0 length                   2 to binary array file.
 Write REAL ZNUCLEAR                       from file      0 offset           0 length                   2 to binary array file.
 Write MULLIKEN CHARGES                    from file      0 offset           0 length                   2 to binary array file.
 Write NUCLEAR GRADIENT                    from file      0 offset           0 length                   6 to binary array file.
 Write NON-ADIABATIC COUPLING              from file      0 offset           0 length                   6 to binary array file.
 Write ETRAN SCALARS                       from file      0 offset           0 length                  20 to binary array file.
 Write ETRAN SPINS                         from file      0 offset           0 length                  15 to binary array file.
 Write ETRAN SYMS                          from file      0 offset           0 length                  15 to binary array file.
 Write ETRAN STATE VALUES                  from file      0 offset           0 length                 240 to binary array file.
 Write MO TRANSFORMATION WINDOW            from file 100569 offset           0 length                   2 to binary array file.
 Write HARM CONSTRAINT C AND FC            from file      0 offset           0 length                  12 to binary array file.
 Write FINITE EM FIELD                     from file 100521 offset           0 length                 105 to binary array file.
 Write OVERLAP                             from file 100514 offset           0 length                5671 to binary array file.
 Write CORE HAMILTONIAN ALPHA              from file 100515 offset           0 length                5671 to binary array file.
 Write CORE HAMILTONIAN BETA               from file 100515 offset        5671 length                5671 to binary array file.
 Write KINETIC ENERGY                      from file 100516 offset           0 length                5671 to binary array file.
 Write ORTHONORMAL BASIS                   from file 100685 offset           0 length               10600 to binary array file.
 Write DIPOLE INTEGRALS                    from file 100518 offset           0 length               17013 to binary array file.
 Write DIP VEL INTEGRALS                   from file 100572 offset           0 length               17013 to binary array file.
 Write R X DEL INTEGRALS                   from file 100572 offset       17013 length               17013 to binary array file.
 Write R X DEL - DEL X R INTEGRALS         from file 100572 offset       34026 length               34026 to binary array file.
 Array MAGNETIC FIELD P1 (GIAO)             on  file 100696 does not exist.
 Write ALPHA ORBITAL ENERGIES              from file      0 offset           0 length                 100 to binary array file.
 Write BETA ORBITAL ENERGIES               from file      0 offset           0 length                 100 to binary array file.
 Write ALPHA MO COEFFICIENTS               from file 100524 offset           0 length               10600 to binary array file.
 Write BETA MO COEFFICIENTS                from file 100526 offset           0 length               10600 to binary array file.
 Write SCF ORBITAL OCCUPATIONS             from file 100861 offset           0 length                 200 to binary array file.
 Write ALPHA FOCK MATRIX                   from file 100536 offset           0 length                5671 to binary array file.
 Write BETA FOCK MATRIX                    from file 100538 offset           0 length                5671 to binary array file.
 Write ENERGY-WEIGHTED DENSITY             from file 100571 offset           0 length                5671 to binary array file.
 Write SCF ENERGY-WEIGHTED DENSITY         from file 100571 offset        5671 length                5671 to binary array file.
 Write ALPHA SCF DENSITY MATRIX            from file      0 offset           0 length                5671 to binary array file.
 Write BETA SCF DENSITY MATRIX             from file      0 offset           0 length                5671 to binary array file.
 Write ALPHA CI RHO(1) DENSITY MATRIX      from file      0 offset           0 length                5671 to binary array file.
 Write BETA CI RHO(1) DENSITY MATRIX       from file      0 offset           0 length                5671 to binary array file.
 Write TRANS MO COEFFICIENTS               from file 100548 offset           0 length               15688 to binary array file.
 Write EXCITED STATE DIMS                  from file      0 offset           0 length                   8 to binary array file.
 Write EXCITED STATE SPINS                 from file      0 offset           0 length                  15 to binary array file.
 Write EXCITED STATE DENSITIES             from file      0 offset           0 length              170130 to binary array file.
 Write GROUND TO EXCITED STATE DENSITIES   from file      0 offset           0 length              337080 to binary array file.
 Write SSCIFILE INTEGERS                   from file      0 offset           0 length                  12 to binary array file.
 Write SSCIFILE REALS                      from file      0 offset           0 length               16815 to binary array file.
 WrULi1:  IRw=100514 LRw=    5671 NInt=       0 IOff=       0 NIntR=       0 NInt=       0 NReal=    5671
 Write FILE     514 REALS                  from file 100514 offset           0 length                5671 to binary array file.
 WrULi1:  IRw=100619 LRw=     341 NInt=       0 IOff=       0 NIntR=       0 NInt=       0 NReal=     341
 Write FILE     619 REALS                  from file 100619 offset           0 length                 341 to binary array file.
 WrULi1:  IRw=100751 LRw=   17013 NInt=       0 IOff=       0 NIntR=       0 NInt=       0 NReal=   17013
 Write FILE     751 REALS                  from file 100751 offset           0 length               17013 to binary array file.
 WrULi1:  IRw=100870 LRw=    5671 NInt=       0 IOff=       0 NIntR=       0 NInt=       0 NReal=    5671
 Write FILE     870 REALS                  from file 100870 offset           0 length                5671 to binary array file.
 WrULi1:  IRw=100001 LRw=   14490 NInt=       0 IOff=       0 NIntR=       0 NInt=       0 NReal=   14490
 Write FILE       1 REALS                  from file 100001 offset           0 length               14490 to binary array file.
 WrULi1:  IRw=100002 LRw=   78400 NInt=       0 IOff=       0 NIntR=       0 NInt=       0 NReal=   78400
 Write FILE       2 REALS                  from file 100002 offset           0 length               78400 to binary array file.
 WrULi1:  IRw=100003 LRw=   14490 NInt=       0 IOff=       0 NIntR=       0 NInt=       0 NReal=   14490
 Write FILE       3 REALS                  from file 100003 offset           0 length               14490 to binary array file.
 WrULi1:  IRw=100004 LRw=      21 NInt=       0 IOff=       0 NIntR=       0 NInt=       0 NReal=      21
 Write FILE       4 REALS                  from file 100004 offset           0 length                  21 to binary array file.
 WrULi1:  IRw=100005 LRw=   78400 NInt=       0 IOff=       0 NIntR=       0 NInt=       0 NReal=   78400
 Write FILE       5 REALS                  from file 100005 offset           0 length               78400 to binary array file.
 WrULi1:  IRw=100006 LRw=     100 NInt=       0 IOff=       0 NIntR=       0 NInt=       0 NReal=     100
 Write FILE       6 REALS                  from file 100006 offset           0 length                 100 to binary array file.
 WrULi1:  IRw=100007 LRw=   24850 NInt=       0 IOff=       0 NIntR=       0 NInt=       0 NReal=   24850
 Write FILE       7 REALS                  from file 100007 offset           0 length               24850 to binary array file.
 WrULi1:  IRw=100008 LRw=   24850 NInt=       0 IOff=       0 NIntR=       0 NInt=       0 NReal=   24850
 Write FILE       8 REALS                  from file 100008 offset           0 length               24850 to binary array file.
 WrULi1:  IRw=100009 LRw=      21 NInt=       0 IOff=       0 NIntR=       0 NInt=       0 NReal=      21
 Write FILE       9 REALS                  from file 100009 offset           0 length                  21 to binary array file.
 WrULi1:  IRw=100010 LRw=   78400 NInt=       0 IOff=       0 NIntR=       0 NInt=       0 NReal=   78400
 Write FILE      10 REALS                  from file 100010 offset           0 length               78400 to binary array file.
 WrULi1:  IRw=100011 LRw=    1680 NInt=       0 IOff=       0 NIntR=       0 NInt=       0 NReal=    1680
 Write FILE      11 REALS                  from file 100011 offset           0 length                1680 to binary array file.
 WrULi1:  IRw=100012 LRw=    2800 NInt=       0 IOff=       0 NIntR=       0 NInt=       0 NReal=    2800
 Write FILE      12 REALS                  from file 100012 offset           0 length                2800 to binary array file.
 WrULi1:  IRw=100013 LRw=    2800 NInt=       0 IOff=       0 NIntR=       0 NInt=       0 NReal=    2800
 Write FILE      13 REALS                  from file 100013 offset           0 length                2800 to binary array file.
 WrULi1:  IRw=100014 LRw=    1680 NInt=       0 IOff=       0 NIntR=       0 NInt=       0 NReal=    1680
 Write FILE      14 REALS                  from file 100014 offset           0 length                1680 to binary array file.
 No 2e integrals to process.
 Job cpu time:       0 days  0 hours  0 minutes 54.5 seconds.
 Elapsed time:       0 days  0 hours  0 minutes  6.8 seconds.
 File lengths (MBytes):  RWF=     79 Int=      0 D2E=      0 Chk=      7 Scr=      1
 Normal termination of Gaussian DV at Mon Oct 20 07:06:04 2025.
