 Entering Gaussian System, Link 0=gdv
 Initial command:
 /home/andy/gdvj28p/gdv/l1.exe "/home/andy/tdci-test/TDCI-CAP/test/Test2_Ar_ellipticity/g/Gau-986536.inp" -scrdir="/home/andy/tdci-test/TDCI-CAP/test/Test2_Ar_ellipticity/g/"
 Entering Link 1 = /home/andy/gdvj28p/gdv/l1.exe PID=    986538.
  
 Copyright (c) 1988-2024, Gaussian, Inc.  All Rights Reserved.
  
 This is the private, development version of
 the Gaussian(R) DV system of programs. It is based on
 the Gaussian(R) 16 system (copyright 2016, Gaussian, Inc.),
 the Gaussian(R) 09 system (copyright 2009, Gaussian, Inc.),
 the Gaussian(R) 03 system (copyright 2003, Gaussian, Inc.),
 the Gaussian(R) 98 system (copyright 1998, Gaussian, Inc.),
 the Gaussian(R) 94 system (copyright 1995, Gaussian, Inc.),
 the Gaussian 92(TM) system (copyright 1992, Gaussian, Inc.),
 the Gaussian 90(TM) system (copyright 1990, Gaussian, Inc.),
 the Gaussian 88(TM) system (copyright 1988, Gaussian, Inc.),
 the Gaussian 86(TM) system (copyright 1986, Carnegie Mellon
 University), and the Gaussian 82(TM) system (copyright 1983,
 Carnegie Mellon University). Gaussian is a federally registered
 trademark of Gaussian, Inc.
  
 This software contains proprietary and confidential information,
 including trade secrets, belonging to Gaussian, Inc.
  
 This software is provided under written license and may be
 used, copied, transmitted, or stored only in accord with that
 written license.
  
 The following legend is applicable only to US Government
 contracts under FAR:
  
                    RESTRICTED RIGHTS LEGEND
  
 Use, reproduction and disclosure by the US Government is
 subject to restrictions as set forth in subparagraphs (a)
 and (c) of the Commercial Computer Software - Restricted
 Rights clause in FAR 52.227-19.
  
 Gaussian, Inc.
 340 Quinnipiac St., Bldg. 40, Wallingford CT 06492
  
  
 ---------------------------------------------------------------
 Warning -- This program may not be used in any manner that
 competes with the business of Gaussian, Inc. or will provide
 assistance to any competitor of Gaussian, Inc.  The licensee
 of this program is prohibited from giving any competitor of
 Gaussian, Inc. access to this program.  By using this program,
 the user acknowledges that Gaussian, Inc. is engaged in the
 business of creating and licensing software in the field of
 computational chemistry and represents and warrants to the
 licensee that it is not a competitor of Gaussian, Inc. and that
 it will not use this program in any manner prohibited above.
 ---------------------------------------------------------------
  

 Cite this work as:
 Gaussian Development Version, Revision J.28+,
 M. J. Frisch, G. W. Trucks, G. Scalmani, J. R. Cheeseman, X. Li, 
 J. Bloino, B. G. Janesko, A. V. Marenich, J. Zheng, F. Lipparini, 
 A. Jenkins, A. Liu, H. Liu, H. B. Schlegel, G. E. Scuseria, 
 M. A. Robb, V. Barone, G. A. Petersson, H. Nakatsuji, B. Mennucci, 
 C. Adamo, N. Rega, M. Caricato, H. P. Hratchian, J. V. Ortiz, 
 F. Pawlowski, A. F. Izmaylov, H. Hu, C. Liao, J. L. Sonnenberg, 
 D. Williams-Young, F. Ding, R. Gomperts, F. Egidi, J. Goings, 
 B. Peng, A. Petrone, T. Henderson, D. Ranasinghe, V. G. Zakrzewski, 
 J. Gao, G. Zheng, W. Liang, M. Hada, M. Ehara, K. Toyota, R. Fukuda, 
 J. Hasegawa, M. Ishida, T. Nakajima, Y. Honda, O. Kitao, H. Nakai, 
 T. Vreven, K. Throssell, J. A. Montgomery, Jr., J. E. Peralta, 
 F. Ogliaro, M. J. Bearpark, J. J. Heyd, E. N. Brothers, K. N. Kudin, 
 V. N. Staroverov, T. A. Keith, R. Kobayashi, J. Normand, 
 K. Raghavachari, A. P. Rendell, J. C. Burant, S. S. Iyengar, 
 M. Cossi, J. M. Millam, M. Klene, R. Cammi, R. L. Martin, O. Farkas, 
 J. B. Foresman, and D. J. Fox, Gaussian, Inc., Wallingford CT, 2023.
 
 *******************************************
 Gaussian DV:  ES64L-GDVRevJ.28+ 16-Apr-2024
                 19-Oct-2025 
 *******************************************
 %chk=gdv.chk
 %mem=32GB
 %nproc=12
 Will use up to   12 processors via shared memory.
 ----------------------------------------------------------------------
 #P ucis(mo,nstates=15)/cc-pVTZ extrabasis gfprint nosymm int(acc2e=16)
  SCF(NoVarAcc,NoIncFock,MaxCYC=64) IOp(3/196=1) IOp(3/33=1) Pop=Full I
 Op(3/194=10003501,3/195=5,6/18=1,8/10=91,8/37=6,8/38=-11,9/127=2) OUTP
 UT=(faf,i4lab,Files=(514,619,751,870,1,2,3,4,5,6,7,8,9,10,11,12,13,14)
 )
 ----------------------------------------------------------------------
 1/37=-1,38=1,172=1/1;
 2/12=2,15=1/2;
 3/5=16,6=1,10=1,11=2,24=100,25=1,27=16,30=1,33=1,116=2,160=20,194=10003501,195=5,196=1/1,2,3,8;
 4//1;
 5/5=100002,7=64,38=1,87=16/2;
 8/6=1,10=91,37=6,38=-11,87=16/1,4;
 9/41=15,42=3,87=16,127=2/14;
 6/7=3,18=1,87=16,125=20/1;
 99/5=1,6=100000,9=1,125=20/99;
 Leave Link    1 at Sun Oct 19 13:27:42 2025, MaxMem=  4294967296 cpu:               0.1 elap:               0.1
 (Enter /home/andy/gdvj28p/gdv/l101.exe)
 -------------------
 Title Card Required
 -------------------
 Symbolic Z-matrix:
 Charge =     0 Multiplicity =     1
 Ar                    0.        0.        0. 
 
 ITRead=  0
 MicOpt= -1
 NAtoms=      1 NQM=        1 NQMF=       0 NMMI=      0 NMMIF=      0
                NMic=       0 NMicF=      0.
                    Isotopes and Nuclear Properties:
 (Nuclear quadrupole moments (NQMom) in fm**2, nuclear magnetic moments (NMagM)
  in nuclear magnetons)

  Atom         1
 IAtWgt=          40
 AtmWgt=  39.9623831
 NucSpn=           0
 AtZEff=   -0.000000
 NQMom=    0.0000000
 NMagM=    0.0000000
 AtZNuc=  18.0000000
 Leave Link  101 at Sun Oct 19 13:27:42 2025, MaxMem=  4294967296 cpu:               0.2 elap:               0.2
 (Enter /home/andy/gdvj28p/gdv/l202.exe)
                          Input orientation:                          
 ---------------------------------------------------------------------
 Center     Atomic      Atomic             Coordinates (Angstroms)
 Number     Number       Type             X           Y           Z
 ---------------------------------------------------------------------
      1         18           0        0.000000    0.000000    0.000000
 ---------------------------------------------------------------------
 Symmetry turned off by external request.
 Stoichiometry    Ar
 Framework group  OH[O(Ar)]
 Deg. of freedom     0
 Full point group                 OH      NOp  48
 Leave Link  202 at Sun Oct 19 13:27:42 2025, MaxMem=  4294967296 cpu:               0.0 elap:               0.0
 (Enter /home/andy/gdvj28p/gdv/l301.exe)
                         Coordinates in L301:                         
 ---------------------------------------------------------------------
 Center     Atomic      Atomic             Coordinates (Angstroms)
 Number     Number       Type             X           Y           Z
 ---------------------------------------------------------------------
      1         18           0        0.000000    0.000000    0.000000
 ---------------------------------------------------------------------
 Standard basis: CC-pVTZ (5D, 7F)
 AtmSel:  Line="Ar 0"
 AtmSel:  NamVal=GCentL NAtLst=     1 NIVal=     0 NNoVal=     0:
 AtmSel:  IAtLst=      1
 Centers:       1
 s 1 1.00
     Exponent=  2.5600000000D-02 Coefficients=  1.0000000000D+00
 s 1 1.00
     Exponent=  1.2800000000D-02 Coefficients=  1.0000000000D+00
 s 1 1.00
     Exponent=  6.4000000000D-03 Coefficients=  1.0000000000D+00
 p 1 1.00
     Exponent=  2.5600000000D-02 Coefficients=  1.0000000000D+00
 p 1 1.00
     Exponent=  1.2800000000D-02 Coefficients=  1.0000000000D+00
 d 1 1.00
     Exponent=  5.1200000000D-02 Coefficients=  1.0000000000D+00
 d 1 1.00
     Exponent=  2.5600000000D-02 Coefficients=  1.0000000000D+00
 d 1 1.00
     Exponent=  1.2800000000D-02 Coefficients=  1.0000000000D+00
 f 1 1.00
     Exponent=  2.5600000000D-02 Coefficients=  1.0000000000D+00
 ****
 FixB: optimizing general contractions.
 Ernie: Thresh=  0.10000D-02 Tol=  0.10000D-05 Strict=F.
 IA=     1 ShT= 0 ShC= 0 NL=   8 NS=   5.
 IA=     1 L=0 SC=0 ISt=    1 NBk=    3 NP=   13 IndPr=    0.
 DoElim1:  L=0 select primitive    3 from    2 using    1 C= 1.86D-03
 DoElim1:  L=0 select primitive    3 from    3 using    1 C= 1.86D-03
 DoElim1:  L=0 select primitive    6 from    3 using    2 C=-1.10D-03
 DoElim2:  L=0 select primitive   13 from    2 using    3 C= 7.31D-01
 DoElim2:  L=0 select primitive   13 from    1 using    3 C= 7.31D-01
 DoElim2:  L=0 select primitive   12 from    1 using    2 C= 5.77D-01
 Delete L=0 primitive    6 from    3 C=  1.17D-20.
 Delete L=0 primitive    4 from    3 C=  8.49D-07.
 Delete L=0 primitive    3 from    3 C=  1.06D-20.
 Delete L=0 primitive    2 from    3 C=  3.39D-08.
 Delete L=0 primitive    1 from    3 C=  3.18D-09.
 Delete L=0 primitive   13 from    2 C=  6.08D-19.
 Delete L=0 primitive    4 from    2 C=  3.02D-07.
 Delete L=0 primitive    3 from    2 C=  3.26D-20.
 Delete L=0 primitive    2 from    2 C=  5.02D-07.
 Delete L=0 primitive    1 from    2 C=  3.17D-08.
 Delete L=0 primitive   13 from    1 C=  5.35D-22.
 Delete L=0 primitive   12 from    1 C=  2.54D-20.
 IA=     1 L=0 SC=0 ISt=    0 NBk=    0 NP=    0 IndPr=   27.
 IA=     1 ShT= 1 ShC= 1 NL=   6 NS=   4.
 IA=     1 L=1 SC=1 ISt=    1 NBk=    2 NP=    7 IndPr=    0.
 DoElim1:  L=1 select primitive    1 from    2 using    1 C= 2.37D-03
 DoElim2:  L=1 select primitive    7 from    1 using    2 C= 5.61D-01
 Delete L=1 primitive    1 from    2 C=  3.01D-20.
 Delete L=1 primitive    7 from    1 C=  2.74D-19.
 IA=     1 L=1 SC=1 ISt=    0 NBk=    0 NP=    0 IndPr=   12.
 IA=     1 ShT= 2 ShC= 2 NL=   5 NS=   5.
 IA=     1 L=2 SC=2 ISt=    0 NBk=    0 NP=    0 IndPr=    0.
 IA=     1 ShT= 3 ShC= 3 NL=   2 NS=   2.
 IA=     1 L=3 SC=3 ISt=    0 NBk=    0 NP=    0 IndPr=    0.
 Ernie:  14 primitive shells out of 69 were deleted.
    65 AO functions
 AO basis set (Overlap normalization):
 Atom Ar1      Shell     1 S  11     bf    1 -     1          0.000000000000          0.000000000000          0.000000000000
      0.5450000000D+06  0.4558935155D-04
      0.8164000000D+05  0.3541824338D-03
      0.1858000000D+05  0.1858352294D-02
      0.5261000000D+04  0.7770108218D-02
      0.1717000000D+04  0.2742897226D-01
      0.6199000000D+03  0.8240148927D-01
      0.2416000000D+03  0.2012785926D+00
      0.9979000000D+02  0.3568853443D+00
      0.4315000000D+02  0.3497218949D+00
      0.1914000000D+02  0.1182967511D+00
      0.7488000000D+01  0.5189970911D-02
 Atom Ar1      Shell     2 S   8     bf    2 -     2          0.000000000000          0.000000000000          0.000000000000
      0.1717000000D+04 -0.1562950489D-03
      0.6199000000D+03 -0.1129782419D-02
      0.2416000000D+03 -0.8662446493D-02
      0.9979000000D+02 -0.3727927422D-01
      0.4315000000D+02 -0.1048800860D+00
      0.1914000000D+02 -0.7779484363D-02
      0.7488000000D+01  0.4997091616D+00
      0.3205000000D+01  0.5935531783D+00
 Atom Ar1      Shell     3 S   8     bf    3 -     3          0.000000000000          0.000000000000          0.000000000000
      0.1717000000D+04  0.3755110993D-05
      0.2416000000D+03  0.2018051583D-03
      0.9979000000D+02  0.8299114236D-03
      0.4315000000D+02  0.4640607563D-02
      0.1914000000D+02  0.1712328741D-02
      0.7488000000D+01 -0.7380654998D-01
      0.3205000000D+01 -0.3718949692D+00
      0.5204000000D+00  0.1171177354D+01
 Atom Ar1      Shell     4 S   1     bf    4 -     4          0.000000000000          0.000000000000          0.000000000000
      0.1196000000D+01  0.1000000000D+01
 Atom Ar1      Shell     5 S   1     bf    5 -     5          0.000000000000          0.000000000000          0.000000000000
      0.1954000000D+00  0.1000000000D+01
 Atom Ar1      Shell     6 S   1     bf    6 -     6          0.000000000000          0.000000000000          0.000000000000
      0.2560000000D-01  0.1000000000D+01
 Atom Ar1      Shell     7 S   1     bf    7 -     7          0.000000000000          0.000000000000          0.000000000000
      0.1280000000D-01  0.1000000000D+01
 Atom Ar1      Shell     8 S   1     bf    8 -     8          0.000000000000          0.000000000000          0.000000000000
      0.6400000000D-02  0.1000000000D+01
 Atom Ar1      Shell     9 P   6     bf    9 -    11          0.000000000000          0.000000000000          0.000000000000
      0.7618000000D+03  0.2434016485D-02
      0.1802000000D+03  0.1953589591D-01
      0.5750000000D+02  0.9046182941D-01
      0.2124000000D+02  0.2632947899D+00
      0.8388000000D+01  0.4504377853D+00
      0.3416000000D+01  0.3570373474D+00
 Atom Ar1      Shell    10 P   6     bf   12 -    14          0.000000000000          0.000000000000          0.000000000000
      0.1802000000D+03  0.4981921779D-04
      0.5750000000D+02 -0.1338709034D-02
      0.2124000000D+02 -0.6311055899D-02
      0.8388000000D+01 -0.3143318954D-01
      0.3416000000D+01  0.8176959744D-02
      0.4523000000D+00  0.1001139457D+01
 Atom Ar1      Shell    11 P   1     bf   15 -    17          0.000000000000          0.000000000000          0.000000000000
      0.1206000000D+01  0.1000000000D+01
 Atom Ar1      Shell    12 P   1     bf   18 -    20          0.000000000000          0.000000000000          0.000000000000
      0.1545000000D+00  0.1000000000D+01
 Atom Ar1      Shell    13 P   1     bf   21 -    23          0.000000000000          0.000000000000          0.000000000000
      0.2560000000D-01  0.1000000000D+01
 Atom Ar1      Shell    14 P   1     bf   24 -    26          0.000000000000          0.000000000000          0.000000000000
      0.1280000000D-01  0.1000000000D+01
 Atom Ar1      Shell    15 D   1     bf   27 -    31          0.000000000000          0.000000000000          0.000000000000
      0.4100000000D+00  0.1000000000D+01
 Atom Ar1      Shell    16 D   1     bf   32 -    36          0.000000000000          0.000000000000          0.000000000000
      0.1254000000D+01  0.1000000000D+01
 Atom Ar1      Shell    17 D   1     bf   37 -    41          0.000000000000          0.000000000000          0.000000000000
      0.5120000000D-01  0.1000000000D+01
 Atom Ar1      Shell    18 D   1     bf   42 -    46          0.000000000000          0.000000000000          0.000000000000
      0.2560000000D-01  0.1000000000D+01
 Atom Ar1      Shell    19 D   1     bf   47 -    51          0.000000000000          0.000000000000          0.000000000000
      0.1280000000D-01  0.1000000000D+01
 Atom Ar1      Shell    20 F   1     bf   52 -    58          0.000000000000          0.000000000000          0.000000000000
      0.8900000000D+00  0.1000000000D+01
 Atom Ar1      Shell    21 F   1     bf   59 -    65          0.000000000000          0.000000000000          0.000000000000
      0.2560000000D-01  0.1000000000D+01
 LdAtmC:  AtmChg=    18.000000
 GetPMM: IRwPM=    824 LRwPM=      0 LPMAll=      2
 AtZEff=    -14.9000000
    65 basis functions,   130 primitive gaussians,    76 cartesian basis functions
     9 alpha electrons        9 beta electrons
       nuclear repulsion energy         0.0000000000 Hartrees.
 IS=     1 IAt=     1 ISR=     1 T=0 IP=      1 IndIP=      1 IndIPD=      0 C=  6.517348D-01  0.000000D+00                             NZ=T
 IS=     1 IAt=     1 ISR=     1 T=0 IP=      2 IndIP=      2 IndIPD=      1 C=  1.219170D+00  0.000000D+00                             NZ=T
 IS=     1 IAt=     1 ISR=     1 T=0 IP=      3 IndIP=      3 IndIPD=      2 C=  2.107766D+00  0.000000D+00                             NZ=T
 IS=     1 IAt=     1 ISR=     1 T=0 IP=      4 IndIP=      4 IndIPD=      3 C=  3.420884D+00  0.000000D+00                             NZ=T
 IS=     1 IAt=     1 ISR=     1 T=0 IP=      5 IndIP=      5 IndIPD=      4 C=  5.214316D+00  0.000000D+00                             NZ=T
 IS=     1 IAt=     1 ISR=     1 T=0 IP=      6 IndIP=      6 IndIPD=      5 C=  7.296026D+00  0.000000D+00                             NZ=T
 IS=     1 IAt=     1 ISR=     1 T=0 IP=      7 IndIP=      7 IndIPD=      6 C=  8.790840D+00  0.000000D+00                             NZ=T
 IS=     1 IAt=     1 ISR=     1 T=0 IP=      8 IndIP=      8 IndIPD=      7 C=  8.030712D+00  0.000000D+00                             NZ=T
 IS=     1 IAt=     1 ISR=     1 T=0 IP=      9 IndIP=      9 IndIPD=      8 C=  4.196319D+00  0.000000D+00                             NZ=T
 IS=     1 IAt=     1 ISR=     1 T=0 IP=     10 IndIP=     10 IndIPD=      9 C=  7.715061D-01  0.000000D+00                             NZ=T
 IS=     1 IAt=     1 ISR=     1 T=0 IP=     11 IndIP=     11 IndIPD=     10 C=  1.674362D-02  0.000000D+00                             NZ=T
 IS=     2 IAt=     1 ISR=     2 T=0 IP=      1 IndIP=     12 IndIPD=      0 C= -2.971208D-02  0.000000D+00                             NZ=T
 IS=     2 IAt=     1 ISR=     2 T=0 IP=      2 IndIP=     13 IndIPD=      1 C= -1.000337D-01  0.000000D+00                             NZ=T
 IS=     2 IAt=     1 ISR=     2 T=0 IP=      3 IndIP=     14 IndIPD=      2 C= -3.783322D-01  0.000000D+00                             NZ=T
 IS=     2 IAt=     1 ISR=     2 T=0 IP=      4 IndIP=     15 IndIPD=      3 C= -8.388664D-01  0.000000D+00                             NZ=T
 IS=     2 IAt=     1 ISR=     2 T=0 IP=      5 IndIP=     16 IndIPD=      4 C= -1.258458D+00  0.000000D+00                             NZ=T
 IS=     2 IAt=     1 ISR=     2 T=0 IP=      6 IndIP=     17 IndIPD=      5 C= -5.073613D-02  0.000000D+00                             NZ=T
 IS=     2 IAt=     1 ISR=     2 T=0 IP=      7 IndIP=     18 IndIPD=      6 C=  1.612136D+00  0.000000D+00                             NZ=T
 IS=     2 IAt=     1 ISR=     2 T=0 IP=      8 IndIP=     19 IndIPD=      7 C=  1.013306D+00  0.000000D+00                             NZ=T
 IS=     3 IAt=     1 ISR=     3 T=0 IP=      1 IndIP=     20 IndIPD=      0 C=  7.138560D-04  0.000000D+00                             NZ=T
 IS=     3 IAt=     1 ISR=     3 T=0 IP=      2 IndIP=     21 IndIPD=      1 C=  8.813838D-03  0.000000D+00                             NZ=T
 IS=     3 IAt=     1 ISR=     3 T=0 IP=      3 IndIP=     22 IndIPD=      2 C=  1.867485D-02  0.000000D+00                             NZ=T
 IS=     3 IAt=     1 ISR=     3 T=0 IP=      4 IndIP=     23 IndIPD=      3 C=  5.568273D-02  0.000000D+00                             NZ=T
 IS=     3 IAt=     1 ISR=     3 T=0 IP=      5 IndIP=     24 IndIPD=      4 C=  1.116744D-02  0.000000D+00                             NZ=T
 IS=     3 IAt=     1 ISR=     3 T=0 IP=      6 IndIP=     25 IndIPD=      5 C= -2.381110D-01  0.000000D+00                             NZ=T
 IS=     3 IAt=     1 ISR=     3 T=0 IP=      7 IndIP=     26 IndIPD=      6 C= -6.348943D-01  0.000000D+00                             NZ=T
 IS=     3 IAt=     1 ISR=     3 T=0 IP=      8 IndIP=     27 IndIPD=      7 C=  5.114294D-01  0.000000D+00                             NZ=T
 IS=     4 IAt=     1 ISR=     4 T=0 IP=      1 IndIP=     28 IndIPD=      0 C=  8.150955D-01  0.000000D+00                             NZ=T
 IS=     5 IAt=     1 ISR=     5 T=0 IP=      1 IndIP=     29 IndIPD=      0 C=  2.094612D-01  0.000000D+00                             NZ=T
 IS=     6 IAt=     1 ISR=     6 T=0 IP=      1 IndIP=     30 IndIPD=      0 C=  4.561315D-02  0.000000D+00                             NZ=T
 IS=     7 IAt=     1 ISR=     7 T=0 IP=      1 IndIP=     31 IndIPD=      0 C=  2.712174D-02  0.000000D+00                             NZ=T
 IS=     8 IAt=     1 ISR=     8 T=0 IP=      1 IndIP=     32 IndIPD=      0 C=  1.612668D-02  0.000000D+00                             NZ=T
 IS=     9 IAt=     1 ISR=     9 T=1 IP=      1 IndIP=     33 IndIPD=      0 C=  0.000000D+00  1.388561D+01                             NZ=T
 IS=     9 IAt=     1 ISR=     9 T=1 IP=      2 IndIP=     34 IndIPD=      1 C=  0.000000D+00  1.838514D+01                             NZ=T
 IS=     9 IAt=     1 ISR=     9 T=1 IP=      3 IndIP=     35 IndIPD=      2 C=  0.000000D+00  2.041692D+01                             NZ=T
 IS=     9 IAt=     1 ISR=     9 T=1 IP=      4 IndIP=     36 IndIPD=      3 C=  0.000000D+00  1.711297D+01                             NZ=T
 IS=     9 IAt=     1 ISR=     9 T=1 IP=      5 IndIP=     37 IndIPD=      4 C=  0.000000D+00  9.165326D+00                             NZ=T
 IS=     9 IAt=     1 ISR=     9 T=1 IP=      6 IndIP=     38 IndIPD=      5 C=  0.000000D+00  2.363475D+00                             NZ=T
 IS=    10 IAt=     1 ISR=    10 T=1 IP=      1 IndIP=     39 IndIPD=      0 C=  0.000000D+00  4.688463D-02                             NZ=T
 IS=    10 IAt=     1 ISR=    10 T=1 IP=      2 IndIP=     40 IndIPD=      1 C=  0.000000D+00 -3.021420D-01                             NZ=T
 IS=    10 IAt=     1 ISR=    10 T=1 IP=      3 IndIP=     41 IndIPD=      2 C=  0.000000D+00 -4.101902D-01                             NZ=T
 IS=    10 IAt=     1 ISR=    10 T=1 IP=      4 IndIP=     42 IndIPD=      3 C=  0.000000D+00 -6.395899D-01                             NZ=T
 IS=    10 IAt=     1 ISR=    10 T=1 IP=      5 IndIP=     43 IndIPD=      4 C=  0.000000D+00  5.412891D-02                             NZ=T
 IS=    10 IAt=     1 ISR=    10 T=1 IP=      6 IndIP=     44 IndIPD=      5 C=  0.000000D+00  5.293195D-01                             NZ=T
 IS=    11 IAt=     1 ISR=    11 T=1 IP=      1 IndIP=     45 IndIPD=      0 C=  0.000000D+00  1.801458D+00                             NZ=T
 IS=    12 IAt=     1 ISR=    12 T=1 IP=      1 IndIP=     46 IndIPD=      0 C=  0.000000D+00  1.380704D-01                             NZ=T
 IS=    13 IAt=     1 ISR=    13 T=1 IP=      1 IndIP=     47 IndIPD=      0 C=  0.000000D+00  1.459621D-02                             NZ=T
 IS=    14 IAt=     1 ISR=    14 T=1 IP=      1 IndIP=     48 IndIPD=      0 C=  0.000000D+00  6.136950D-03                             NZ=T
 IS=    15 IAt=     1 ISR=    15 T=2 IP=      1 IndIP=     49 IndIPD=      1 C=  0.000000D+00  0.000000D+00  3.457651D-01  0.000000D+00 NZ=T
 IS=    16 IAt=     1 ISR=    16 T=2 IP=      1 IndIP=     50 IndIPD=      2 C=  0.000000D+00  0.000000D+00  2.445852D+00  0.000000D+00 NZ=T
 IS=    17 IAt=     1 ISR=    17 T=2 IP=      1 IndIP=     51 IndIPD=      3 C=  0.000000D+00  0.000000D+00  9.070514D-03  0.000000D+00 NZ=T
 IS=    18 IAt=     1 ISR=    18 T=2 IP=      1 IndIP=     52 IndIPD=      4 C=  0.000000D+00  0.000000D+00  2.696680D-03  0.000000D+00 NZ=T
 IS=    19 IAt=     1 ISR=    19 T=2 IP=      1 IndIP=     53 IndIPD=      5 C=  0.000000D+00  0.000000D+00  8.017277D-04  0.000000D+00 NZ=T
 IS=    20 IAt=     1 ISR=    20 T=3 IP=      1 IndIP=     54 IndIPD=      6 C=  0.000000D+00  0.000000D+00  0.000000D+00  1.132614D+00 NZ=T
 IS=    21 IAt=     1 ISR=    21 T=3 IP=      1 IndIP=     55 IndIPD=      7 C=  0.000000D+00  0.000000D+00  0.000000D+00  3.859174D-04 NZ=T
 IExCor=         0 DFT=F Ex=HF Corr=None N6=None ScaHFX=  1.000000
 ScaDFX=  1.000000  1.000000  1.000000  1.000000  1.000000  0.000000
 ScaDFX=  0.000000  0.000000  0.000000  0.000000  0.000000  0.000000
 Grid=UltraFine IRanWt=     -1 IRanGd=            0 ICorTp=0 IEDCtl=  2004
 NAtoms=    1 NActive=    1 NUniq=    1 SFac= 1.00D+00 NAtFMM=   60 NAOKFM=F Big=F
 Integral buffers will be    131072 words long.
 Raffenetti 2 integral format.
 Two-electron integral symmetry is turned off.
 Leave Link  301 at Sun Oct 19 13:27:42 2025, MaxMem=  4294967296 cpu:               0.1 elap:               0.0
 (Enter /home/andy/gdvj28p/gdv/l302.exe)
 GetPMM: IRwPM=    824 LRwPM=      0 LPMAll=      2
 NPDir=0 NMtPBC=     1 NCelOv=     1 NCel=       1 NClECP=     1 NCelD=      1
         NCelK=      1 NCelE2=     1 NClLst=     1 CellRange=     0.0.
 One-electron integrals computed using PRISM.
 Entering OneElI...
 Calculate overlap and kinetic energy integrals
    NBasis =  65  MinDer = 0  MaxDer = 0
 Requested accuracy = 0.1000D-12
 PrmmSu-InSpLW:  IPartL=    0 NPrtUS=   12 NPrtUL=    1 DoSpLW=F IThBeg=    0 IThEnd=   11 NThAct=   12.
 PrSmSu:  IncTry=   512 NBBP=            231 NTPThr=   100 NPartT=   12 Incr=           1 LDynOK=F GPUOK=F.
 PrsmSu:  NPrtUS=  12 ThrOK=T IAlg=1 LenDen=           0 ISkipM=0 DoSpLW=F IThBeg=    0 IThEnd=   11.
 Prism:   IPart=     0 DynPar=F LinDyn=F Incr=           1.
 PRISM was handed   357891248 working-precision words and   231 shell-pairs
 PRISM was handed   357891248 working-precision words and   231 shell-pairs
 PRISM was handed   357891248 working-precision words and   231 shell-pairs
 PRISM was handed   357891248 working-precision words and   231 shell-pairs
 PRISM was handed   357891248 working-precision words and   231 shell-pairs
 PRISM was handed   357891248 working-precision words and   231 shell-pairs
 PRISM was handed   357891248 working-precision words and   231 shell-pairs
 PRISM was handed   357891248 working-precision words and   231 shell-pairs
 PRISM was handed   357891248 working-precision words and   231 shell-pairs
 PRISM was handed   357891248 working-precision words and   231 shell-pairs
 PRISM was handed   357891248 working-precision words and   231 shell-pairs
 PRISM was handed   357891248 working-precision words and   231 shell-pairs
 PrSmSu:  NxtVal=             13.
 *** Overlap *** 
                1             2             3             4             5 
      1  0.100000D+01
      2  0.278141D+00  0.100000D+01
      3 -0.420057D-01  0.156300D+00  0.100000D+01
      4  0.154626D+00  0.757973D+00  0.679427D+00  0.100000D+01
      5  0.413951D-01  0.269828D+00  0.854247D+00  0.579240D+00  0.100000D+01
      6  0.907982D-02  0.626832D-01  0.291349D+00  0.153331D+00  0.512071D+00
      7  0.540186D-02  0.374589D-01  0.180069D+00  0.926231D-01  0.332985D+00
      8  0.321285D-02  0.223293D-01  0.109195D+00  0.555143D-01  0.207487D+00
      9  0.000000D+00  0.000000D+00  0.000000D+00  0.000000D+00  0.000000D+00
     10  0.000000D+00  0.000000D+00  0.000000D+00  0.000000D+00  0.000000D+00
     11  0.000000D+00  0.000000D+00  0.000000D+00  0.000000D+00  0.000000D+00
     12  0.000000D+00  0.000000D+00  0.000000D+00  0.000000D+00  0.000000D+00
     13  0.000000D+00  0.000000D+00  0.000000D+00  0.000000D+00  0.000000D+00
     14  0.000000D+00  0.000000D+00  0.000000D+00  0.000000D+00  0.000000D+00
     15  0.000000D+00  0.000000D+00  0.000000D+00  0.000000D+00  0.000000D+00
     16  0.000000D+00  0.000000D+00  0.000000D+00  0.000000D+00  0.000000D+00
     17  0.000000D+00  0.000000D+00  0.000000D+00  0.000000D+00  0.000000D+00
     18  0.000000D+00  0.000000D+00  0.000000D+00  0.000000D+00  0.000000D+00
     19  0.000000D+00  0.000000D+00  0.000000D+00  0.000000D+00  0.000000D+00
     20  0.000000D+00  0.000000D+00  0.000000D+00  0.000000D+00  0.000000D+00
     21  0.000000D+00  0.000000D+00  0.000000D+00  0.000000D+00  0.000000D+00
     22  0.000000D+00  0.000000D+00  0.000000D+00  0.000000D+00  0.000000D+00
     23  0.000000D+00  0.000000D+00  0.000000D+00  0.000000D+00  0.000000D+00
     24  0.000000D+00  0.000000D+00  0.000000D+00  0.000000D+00  0.000000D+00
     25  0.000000D+00  0.000000D+00  0.000000D+00  0.000000D+00  0.000000D+00
     26  0.000000D+00  0.000000D+00  0.000000D+00  0.000000D+00  0.000000D+00
     27  0.000000D+00  0.000000D+00  0.000000D+00  0.000000D+00  0.000000D+00
     28  0.000000D+00  0.000000D+00  0.000000D+00  0.000000D+00  0.000000D+00
     29  0.000000D+00  0.000000D+00  0.000000D+00  0.000000D+00  0.000000D+00
     30  0.000000D+00  0.000000D+00  0.000000D+00  0.000000D+00  0.000000D+00
     31  0.000000D+00  0.000000D+00  0.000000D+00  0.000000D+00  0.000000D+00
     32  0.000000D+00  0.000000D+00  0.000000D+00  0.000000D+00  0.000000D+00
     33  0.000000D+00  0.000000D+00  0.000000D+00  0.000000D+00  0.000000D+00
     34  0.000000D+00  0.000000D+00  0.000000D+00  0.000000D+00  0.000000D+00
     35  0.000000D+00  0.000000D+00  0.000000D+00  0.000000D+00  0.000000D+00
     36  0.000000D+00  0.000000D+00  0.000000D+00  0.000000D+00  0.000000D+00
     37  0.000000D+00  0.000000D+00  0.000000D+00  0.000000D+00  0.000000D+00
     38  0.000000D+00  0.000000D+00  0.000000D+00  0.000000D+00  0.000000D+00
     39  0.000000D+00  0.000000D+00  0.000000D+00  0.000000D+00  0.000000D+00
     40  0.000000D+00  0.000000D+00  0.000000D+00  0.000000D+00  0.000000D+00
     41  0.000000D+00  0.000000D+00  0.000000D+00  0.000000D+00  0.000000D+00
     42  0.000000D+00  0.000000D+00  0.000000D+00  0.000000D+00  0.000000D+00
     43  0.000000D+00  0.000000D+00  0.000000D+00  0.000000D+00  0.000000D+00
     44  0.000000D+00  0.000000D+00  0.000000D+00  0.000000D+00  0.000000D+00
     45  0.000000D+00  0.000000D+00  0.000000D+00  0.000000D+00  0.000000D+00
     46  0.000000D+00  0.000000D+00  0.000000D+00  0.000000D+00  0.000000D+00
     47  0.000000D+00  0.000000D+00  0.000000D+00  0.000000D+00  0.000000D+00
     48  0.000000D+00  0.000000D+00  0.000000D+00  0.000000D+00  0.000000D+00
     49  0.000000D+00  0.000000D+00  0.000000D+00  0.000000D+00  0.000000D+00
     50  0.000000D+00  0.000000D+00  0.000000D+00  0.000000D+00  0.000000D+00
     51  0.000000D+00  0.000000D+00  0.000000D+00  0.000000D+00  0.000000D+00
     52  0.000000D+00  0.000000D+00  0.000000D+00  0.000000D+00  0.000000D+00
     53  0.000000D+00  0.000000D+00  0.000000D+00  0.000000D+00  0.000000D+00
     54  0.000000D+00  0.000000D+00  0.000000D+00  0.000000D+00  0.000000D+00
     55  0.000000D+00  0.000000D+00  0.000000D+00  0.000000D+00  0.000000D+00
     56  0.000000D+00  0.000000D+00  0.000000D+00  0.000000D+00  0.000000D+00
     57  0.000000D+00  0.000000D+00  0.000000D+00  0.000000D+00  0.000000D+00
     58  0.000000D+00  0.000000D+00  0.000000D+00  0.000000D+00  0.000000D+00
     59  0.000000D+00  0.000000D+00  0.000000D+00  0.000000D+00  0.000000D+00
     60  0.000000D+00  0.000000D+00  0.000000D+00  0.000000D+00  0.000000D+00
     61  0.000000D+00  0.000000D+00  0.000000D+00  0.000000D+00  0.000000D+00
     62  0.000000D+00  0.000000D+00  0.000000D+00  0.000000D+00  0.000000D+00
     63  0.000000D+00  0.000000D+00  0.000000D+00  0.000000D+00  0.000000D+00
     64  0.000000D+00  0.000000D+00  0.000000D+00  0.000000D+00  0.000000D+00
     65  0.000000D+00  0.000000D+00  0.000000D+00  0.000000D+00  0.000000D+00
                6             7             8             9            10 
      6  0.100000D+01
      7  0.915452D+00  0.100000D+01
      8  0.715542D+00  0.915452D+00  0.100000D+01
      9  0.000000D+00  0.000000D+00  0.000000D+00  0.100000D+01
     10  0.000000D+00  0.000000D+00  0.000000D+00  0.000000D+00  0.100000D+01
     11  0.000000D+00  0.000000D+00  0.000000D+00  0.000000D+00  0.000000D+00
     12  0.000000D+00  0.000000D+00  0.000000D+00  0.159683D+00  0.000000D+00
     13  0.000000D+00  0.000000D+00  0.000000D+00  0.000000D+00  0.159683D+00
     14  0.000000D+00  0.000000D+00  0.000000D+00  0.000000D+00  0.000000D+00
     15  0.000000D+00  0.000000D+00  0.000000D+00  0.459391D+00  0.000000D+00
     16  0.000000D+00  0.000000D+00  0.000000D+00  0.000000D+00  0.459391D+00
     17  0.000000D+00  0.000000D+00  0.000000D+00  0.000000D+00  0.000000D+00
     18  0.000000D+00  0.000000D+00  0.000000D+00  0.576694D-01  0.000000D+00
     19  0.000000D+00  0.000000D+00  0.000000D+00  0.000000D+00  0.576694D-01
     20  0.000000D+00  0.000000D+00  0.000000D+00  0.000000D+00  0.000000D+00
     21  0.000000D+00  0.000000D+00  0.000000D+00  0.655329D-02  0.000000D+00
     22  0.000000D+00  0.000000D+00  0.000000D+00  0.000000D+00  0.655329D-02
     23  0.000000D+00  0.000000D+00  0.000000D+00  0.000000D+00  0.000000D+00
     24  0.000000D+00  0.000000D+00  0.000000D+00  0.277564D-02  0.000000D+00
     25  0.000000D+00  0.000000D+00  0.000000D+00  0.000000D+00  0.277564D-02
     26  0.000000D+00  0.000000D+00  0.000000D+00  0.000000D+00  0.000000D+00
     27  0.000000D+00  0.000000D+00  0.000000D+00  0.000000D+00  0.000000D+00
     28  0.000000D+00  0.000000D+00  0.000000D+00  0.000000D+00  0.000000D+00
     29  0.000000D+00  0.000000D+00  0.000000D+00  0.000000D+00  0.000000D+00
     30  0.000000D+00  0.000000D+00  0.000000D+00  0.000000D+00  0.000000D+00
     31  0.000000D+00  0.000000D+00  0.000000D+00  0.000000D+00  0.000000D+00
     32  0.000000D+00  0.000000D+00  0.000000D+00  0.000000D+00  0.000000D+00
     33  0.000000D+00  0.000000D+00  0.000000D+00  0.000000D+00  0.000000D+00
     34  0.000000D+00  0.000000D+00  0.000000D+00  0.000000D+00  0.000000D+00
     35  0.000000D+00  0.000000D+00  0.000000D+00  0.000000D+00  0.000000D+00
     36  0.000000D+00  0.000000D+00  0.000000D+00  0.000000D+00  0.000000D+00
     37  0.000000D+00  0.000000D+00  0.000000D+00  0.000000D+00  0.000000D+00
     38  0.000000D+00  0.000000D+00  0.000000D+00  0.000000D+00  0.000000D+00
     39  0.000000D+00  0.000000D+00  0.000000D+00  0.000000D+00  0.000000D+00
     40  0.000000D+00  0.000000D+00  0.000000D+00  0.000000D+00  0.000000D+00
     41  0.000000D+00  0.000000D+00  0.000000D+00  0.000000D+00  0.000000D+00
     42  0.000000D+00  0.000000D+00  0.000000D+00  0.000000D+00  0.000000D+00
     43  0.000000D+00  0.000000D+00  0.000000D+00  0.000000D+00  0.000000D+00
     44  0.000000D+00  0.000000D+00  0.000000D+00  0.000000D+00  0.000000D+00
     45  0.000000D+00  0.000000D+00  0.000000D+00  0.000000D+00  0.000000D+00
     46  0.000000D+00  0.000000D+00  0.000000D+00  0.000000D+00  0.000000D+00
     47  0.000000D+00  0.000000D+00  0.000000D+00  0.000000D+00  0.000000D+00
     48  0.000000D+00  0.000000D+00  0.000000D+00  0.000000D+00  0.000000D+00
     49  0.000000D+00  0.000000D+00  0.000000D+00  0.000000D+00  0.000000D+00
     50  0.000000D+00  0.000000D+00  0.000000D+00  0.000000D+00  0.000000D+00
     51  0.000000D+00  0.000000D+00  0.000000D+00  0.000000D+00  0.000000D+00
     52  0.000000D+00  0.000000D+00  0.000000D+00  0.000000D+00  0.000000D+00
     53  0.000000D+00  0.000000D+00  0.000000D+00  0.000000D+00  0.000000D+00
     54  0.000000D+00  0.000000D+00  0.000000D+00  0.000000D+00  0.000000D+00
     55  0.000000D+00  0.000000D+00  0.000000D+00  0.000000D+00  0.000000D+00
     56  0.000000D+00  0.000000D+00  0.000000D+00  0.000000D+00  0.000000D+00
     57  0.000000D+00  0.000000D+00  0.000000D+00  0.000000D+00  0.000000D+00
     58  0.000000D+00  0.000000D+00  0.000000D+00  0.000000D+00  0.000000D+00
     59  0.000000D+00  0.000000D+00  0.000000D+00  0.000000D+00  0.000000D+00
     60  0.000000D+00  0.000000D+00  0.000000D+00  0.000000D+00  0.000000D+00
     61  0.000000D+00  0.000000D+00  0.000000D+00  0.000000D+00  0.000000D+00
     62  0.000000D+00  0.000000D+00  0.000000D+00  0.000000D+00  0.000000D+00
     63  0.000000D+00  0.000000D+00  0.000000D+00  0.000000D+00  0.000000D+00
     64  0.000000D+00  0.000000D+00  0.000000D+00  0.000000D+00  0.000000D+00
     65  0.000000D+00  0.000000D+00  0.000000D+00  0.000000D+00  0.000000D+00
               11            12            13            14            15 
     11  0.100000D+01
     12  0.000000D+00  0.100000D+01
     13  0.000000D+00  0.000000D+00  0.100000D+01
     14  0.159683D+00  0.000000D+00  0.000000D+00  0.100000D+01
     15  0.000000D+00  0.743426D+00  0.000000D+00  0.000000D+00  0.100000D+01
     16  0.000000D+00  0.000000D+00  0.743426D+00  0.000000D+00  0.000000D+00
     17  0.459391D+00  0.000000D+00  0.000000D+00  0.743426D+00  0.000000D+00
     18  0.000000D+00  0.709046D+00  0.000000D+00  0.000000D+00  0.320755D+00
     19  0.000000D+00  0.000000D+00  0.709046D+00  0.000000D+00  0.000000D+00
     20  0.576694D-01  0.000000D+00  0.000000D+00  0.709046D+00  0.000000D+00
     21  0.000000D+00  0.136207D+00  0.000000D+00  0.000000D+00  0.434895D-01
     22  0.000000D+00  0.000000D+00  0.136207D+00  0.000000D+00  0.000000D+00
     23  0.655329D-02  0.000000D+00  0.000000D+00  0.136207D+00  0.000000D+00
     24  0.000000D+00  0.612910D-01  0.000000D+00  0.000000D+00  0.187690D-01
     25  0.000000D+00  0.000000D+00  0.612910D-01  0.000000D+00  0.000000D+00
     26  0.277564D-02  0.000000D+00  0.000000D+00  0.612910D-01  0.000000D+00
     27  0.000000D+00  0.000000D+00  0.000000D+00  0.000000D+00  0.000000D+00
     28  0.000000D+00  0.000000D+00  0.000000D+00  0.000000D+00  0.000000D+00
     29  0.000000D+00  0.000000D+00  0.000000D+00  0.000000D+00  0.000000D+00
     30  0.000000D+00  0.000000D+00  0.000000D+00  0.000000D+00  0.000000D+00
     31  0.000000D+00  0.000000D+00  0.000000D+00  0.000000D+00  0.000000D+00
     32  0.000000D+00  0.000000D+00  0.000000D+00  0.000000D+00  0.000000D+00
     33  0.000000D+00  0.000000D+00  0.000000D+00  0.000000D+00  0.000000D+00
     34  0.000000D+00  0.000000D+00  0.000000D+00  0.000000D+00  0.000000D+00
     35  0.000000D+00  0.000000D+00  0.000000D+00  0.000000D+00  0.000000D+00
     36  0.000000D+00  0.000000D+00  0.000000D+00  0.000000D+00  0.000000D+00
     37  0.000000D+00  0.000000D+00  0.000000D+00  0.000000D+00  0.000000D+00
     38  0.000000D+00  0.000000D+00  0.000000D+00  0.000000D+00  0.000000D+00
     39  0.000000D+00  0.000000D+00  0.000000D+00  0.000000D+00  0.000000D+00
     40  0.000000D+00  0.000000D+00  0.000000D+00  0.000000D+00  0.000000D+00
     41  0.000000D+00  0.000000D+00  0.000000D+00  0.000000D+00  0.000000D+00
     42  0.000000D+00  0.000000D+00  0.000000D+00  0.000000D+00  0.000000D+00
     43  0.000000D+00  0.000000D+00  0.000000D+00  0.000000D+00  0.000000D+00
     44  0.000000D+00  0.000000D+00  0.000000D+00  0.000000D+00  0.000000D+00
     45  0.000000D+00  0.000000D+00  0.000000D+00  0.000000D+00  0.000000D+00
     46  0.000000D+00  0.000000D+00  0.000000D+00  0.000000D+00  0.000000D+00
     47  0.000000D+00  0.000000D+00  0.000000D+00  0.000000D+00  0.000000D+00
     48  0.000000D+00  0.000000D+00  0.000000D+00  0.000000D+00  0.000000D+00
     49  0.000000D+00  0.000000D+00  0.000000D+00  0.000000D+00  0.000000D+00
     50  0.000000D+00  0.000000D+00  0.000000D+00  0.000000D+00  0.000000D+00
     51  0.000000D+00  0.000000D+00  0.000000D+00  0.000000D+00  0.000000D+00
     52  0.000000D+00  0.000000D+00  0.000000D+00  0.000000D+00  0.000000D+00
     53  0.000000D+00  0.000000D+00  0.000000D+00  0.000000D+00  0.000000D+00
     54  0.000000D+00  0.000000D+00  0.000000D+00  0.000000D+00  0.000000D+00
     55  0.000000D+00  0.000000D+00  0.000000D+00  0.000000D+00  0.000000D+00
     56  0.000000D+00  0.000000D+00  0.000000D+00  0.000000D+00  0.000000D+00
     57  0.000000D+00  0.000000D+00  0.000000D+00  0.000000D+00  0.000000D+00
     58  0.000000D+00  0.000000D+00  0.000000D+00  0.000000D+00  0.000000D+00
     59  0.000000D+00  0.000000D+00  0.000000D+00  0.000000D+00  0.000000D+00
     60  0.000000D+00  0.000000D+00  0.000000D+00  0.000000D+00  0.000000D+00
     61  0.000000D+00  0.000000D+00  0.000000D+00  0.000000D+00  0.000000D+00
     62  0.000000D+00  0.000000D+00  0.000000D+00  0.000000D+00  0.000000D+00
     63  0.000000D+00  0.000000D+00  0.000000D+00  0.000000D+00  0.000000D+00
     64  0.000000D+00  0.000000D+00  0.000000D+00  0.000000D+00  0.000000D+00
     65  0.000000D+00  0.000000D+00  0.000000D+00  0.000000D+00  0.000000D+00
               16            17            18            19            20 
     16  0.100000D+01
     17  0.000000D+00  0.100000D+01
     18  0.000000D+00  0.000000D+00  0.100000D+01
     19  0.320755D+00  0.000000D+00  0.000000D+00  0.100000D+01
     20  0.000000D+00  0.320755D+00  0.000000D+00  0.000000D+00  0.100000D+01
     21  0.000000D+00  0.000000D+00  0.407616D+00  0.000000D+00  0.000000D+00
     22  0.434895D-01  0.000000D+00  0.000000D+00  0.407616D+00  0.000000D+00
     23  0.000000D+00  0.434895D-01  0.000000D+00  0.000000D+00  0.407616D+00
     24  0.000000D+00  0.000000D+00  0.206067D+00  0.000000D+00  0.000000D+00
     25  0.187690D-01  0.000000D+00  0.000000D+00  0.206067D+00  0.000000D+00
     26  0.000000D+00  0.187690D-01  0.000000D+00  0.000000D+00  0.206067D+00
     27  0.000000D+00  0.000000D+00  0.000000D+00  0.000000D+00  0.000000D+00
     28  0.000000D+00  0.000000D+00  0.000000D+00  0.000000D+00  0.000000D+00
     29  0.000000D+00  0.000000D+00  0.000000D+00  0.000000D+00  0.000000D+00
     30  0.000000D+00  0.000000D+00  0.000000D+00  0.000000D+00  0.000000D+00
     31  0.000000D+00  0.000000D+00  0.000000D+00  0.000000D+00  0.000000D+00
     32  0.000000D+00  0.000000D+00  0.000000D+00  0.000000D+00  0.000000D+00
     33  0.000000D+00  0.000000D+00  0.000000D+00  0.000000D+00  0.000000D+00
     34  0.000000D+00  0.000000D+00  0.000000D+00  0.000000D+00  0.000000D+00
     35  0.000000D+00  0.000000D+00  0.000000D+00  0.000000D+00  0.000000D+00
     36  0.000000D+00  0.000000D+00  0.000000D+00  0.000000D+00  0.000000D+00
     37  0.000000D+00  0.000000D+00  0.000000D+00  0.000000D+00  0.000000D+00
     38  0.000000D+00  0.000000D+00  0.000000D+00  0.000000D+00  0.000000D+00
     39  0.000000D+00  0.000000D+00  0.000000D+00  0.000000D+00  0.000000D+00
     40  0.000000D+00  0.000000D+00  0.000000D+00  0.000000D+00  0.000000D+00
     41  0.000000D+00  0.000000D+00  0.000000D+00  0.000000D+00  0.000000D+00
     42  0.000000D+00  0.000000D+00  0.000000D+00  0.000000D+00  0.000000D+00
     43  0.000000D+00  0.000000D+00  0.000000D+00  0.000000D+00  0.000000D+00
     44  0.000000D+00  0.000000D+00  0.000000D+00  0.000000D+00  0.000000D+00
     45  0.000000D+00  0.000000D+00  0.000000D+00  0.000000D+00  0.000000D+00
     46  0.000000D+00  0.000000D+00  0.000000D+00  0.000000D+00  0.000000D+00
     47  0.000000D+00  0.000000D+00  0.000000D+00  0.000000D+00  0.000000D+00
     48  0.000000D+00  0.000000D+00  0.000000D+00  0.000000D+00  0.000000D+00
     49  0.000000D+00  0.000000D+00  0.000000D+00  0.000000D+00  0.000000D+00
     50  0.000000D+00  0.000000D+00  0.000000D+00  0.000000D+00  0.000000D+00
     51  0.000000D+00  0.000000D+00  0.000000D+00  0.000000D+00  0.000000D+00
     52  0.000000D+00  0.000000D+00  0.000000D+00  0.000000D+00  0.000000D+00
     53  0.000000D+00  0.000000D+00  0.000000D+00  0.000000D+00  0.000000D+00
     54  0.000000D+00  0.000000D+00  0.000000D+00  0.000000D+00  0.000000D+00
     55  0.000000D+00  0.000000D+00  0.000000D+00  0.000000D+00  0.000000D+00
     56  0.000000D+00  0.000000D+00  0.000000D+00  0.000000D+00  0.000000D+00
     57  0.000000D+00  0.000000D+00  0.000000D+00  0.000000D+00  0.000000D+00
     58  0.000000D+00  0.000000D+00  0.000000D+00  0.000000D+00  0.000000D+00
     59  0.000000D+00  0.000000D+00  0.000000D+00  0.000000D+00  0.000000D+00
     60  0.000000D+00  0.000000D+00  0.000000D+00  0.000000D+00  0.000000D+00
     61  0.000000D+00  0.000000D+00  0.000000D+00  0.000000D+00  0.000000D+00
     62  0.000000D+00  0.000000D+00  0.000000D+00  0.000000D+00  0.000000D+00
     63  0.000000D+00  0.000000D+00  0.000000D+00  0.000000D+00  0.000000D+00
     64  0.000000D+00  0.000000D+00  0.000000D+00  0.000000D+00  0.000000D+00
     65  0.000000D+00  0.000000D+00  0.000000D+00  0.000000D+00  0.000000D+00
               21            22            23            24            25 
     21  0.100000D+01
     22  0.000000D+00  0.100000D+01
     23  0.000000D+00  0.000000D+00  0.100000D+01
     24  0.863096D+00  0.000000D+00  0.000000D+00  0.100000D+01
     25  0.000000D+00  0.863096D+00  0.000000D+00  0.000000D+00  0.100000D+01
     26  0.000000D+00  0.000000D+00  0.863096D+00  0.000000D+00  0.000000D+00
     27  0.000000D+00  0.000000D+00  0.000000D+00  0.000000D+00  0.000000D+00
     28  0.000000D+00  0.000000D+00  0.000000D+00  0.000000D+00  0.000000D+00
     29  0.000000D+00  0.000000D+00  0.000000D+00  0.000000D+00  0.000000D+00
     30  0.000000D+00  0.000000D+00  0.000000D+00  0.000000D+00  0.000000D+00
     31  0.000000D+00  0.000000D+00  0.000000D+00  0.000000D+00  0.000000D+00
     32  0.000000D+00  0.000000D+00  0.000000D+00  0.000000D+00  0.000000D+00
     33  0.000000D+00  0.000000D+00  0.000000D+00  0.000000D+00  0.000000D+00
     34  0.000000D+00  0.000000D+00  0.000000D+00  0.000000D+00  0.000000D+00
     35  0.000000D+00  0.000000D+00  0.000000D+00  0.000000D+00  0.000000D+00
     36  0.000000D+00  0.000000D+00  0.000000D+00  0.000000D+00  0.000000D+00
     37  0.000000D+00  0.000000D+00  0.000000D+00  0.000000D+00  0.000000D+00
     38  0.000000D+00  0.000000D+00  0.000000D+00  0.000000D+00  0.000000D+00
     39  0.000000D+00  0.000000D+00  0.000000D+00  0.000000D+00  0.000000D+00
     40  0.000000D+00  0.000000D+00  0.000000D+00  0.000000D+00  0.000000D+00
     41  0.000000D+00  0.000000D+00  0.000000D+00  0.000000D+00  0.000000D+00
     42  0.000000D+00  0.000000D+00  0.000000D+00  0.000000D+00  0.000000D+00
     43  0.000000D+00  0.000000D+00  0.000000D+00  0.000000D+00  0.000000D+00
     44  0.000000D+00  0.000000D+00  0.000000D+00  0.000000D+00  0.000000D+00
     45  0.000000D+00  0.000000D+00  0.000000D+00  0.000000D+00  0.000000D+00
     46  0.000000D+00  0.000000D+00  0.000000D+00  0.000000D+00  0.000000D+00
     47  0.000000D+00  0.000000D+00  0.000000D+00  0.000000D+00  0.000000D+00
     48  0.000000D+00  0.000000D+00  0.000000D+00  0.000000D+00  0.000000D+00
     49  0.000000D+00  0.000000D+00  0.000000D+00  0.000000D+00  0.000000D+00
     50  0.000000D+00  0.000000D+00  0.000000D+00  0.000000D+00  0.000000D+00
     51  0.000000D+00  0.000000D+00  0.000000D+00  0.000000D+00  0.000000D+00
     52  0.000000D+00  0.000000D+00  0.000000D+00  0.000000D+00  0.000000D+00
     53  0.000000D+00  0.000000D+00  0.000000D+00  0.000000D+00  0.000000D+00
     54  0.000000D+00  0.000000D+00  0.000000D+00  0.000000D+00  0.000000D+00
     55  0.000000D+00  0.000000D+00  0.000000D+00  0.000000D+00  0.000000D+00
     56  0.000000D+00  0.000000D+00  0.000000D+00  0.000000D+00  0.000000D+00
     57  0.000000D+00  0.000000D+00  0.000000D+00  0.000000D+00  0.000000D+00
     58  0.000000D+00  0.000000D+00  0.000000D+00  0.000000D+00  0.000000D+00
     59  0.000000D+00  0.000000D+00  0.000000D+00  0.000000D+00  0.000000D+00
     60  0.000000D+00  0.000000D+00  0.000000D+00  0.000000D+00  0.000000D+00
     61  0.000000D+00  0.000000D+00  0.000000D+00  0.000000D+00  0.000000D+00
     62  0.000000D+00  0.000000D+00  0.000000D+00  0.000000D+00  0.000000D+00
     63  0.000000D+00  0.000000D+00  0.000000D+00  0.000000D+00  0.000000D+00
     64  0.000000D+00  0.000000D+00  0.000000D+00  0.000000D+00  0.000000D+00
     65  0.000000D+00  0.000000D+00  0.000000D+00  0.000000D+00  0.000000D+00
               26            27            28            29            30 
     26  0.100000D+01
     27  0.000000D+00  0.100000D+01
     28  0.000000D+00  0.000000D+00  0.100000D+01
     29  0.000000D+00  0.000000D+00  0.000000D+00  0.100000D+01
     30  0.000000D+00  0.000000D+00  0.000000D+00  0.000000D+00  0.100000D+01
     31  0.000000D+00  0.000000D+00  0.000000D+00  0.000000D+00  0.000000D+00
     32  0.000000D+00  0.594239D+00  0.000000D+00  0.000000D+00  0.000000D+00
     33  0.000000D+00  0.000000D+00  0.594239D+00  0.000000D+00  0.000000D+00
     34  0.000000D+00  0.000000D+00  0.000000D+00  0.594239D+00  0.000000D+00
     35  0.000000D+00  0.000000D+00  0.000000D+00  0.000000D+00  0.594239D+00
     36  0.000000D+00  0.000000D+00  0.000000D+00  0.000000D+00  0.000000D+00
     37  0.000000D+00  0.196601D+00  0.000000D+00  0.000000D+00  0.000000D+00
     38  0.000000D+00  0.000000D+00  0.196601D+00  0.000000D+00  0.000000D+00
     39  0.000000D+00  0.000000D+00  0.000000D+00  0.196601D+00  0.000000D+00
     40  0.000000D+00  0.000000D+00  0.000000D+00  0.000000D+00  0.196601D+00
     41  0.000000D+00  0.000000D+00  0.000000D+00  0.000000D+00  0.000000D+00
     42  0.000000D+00  0.713821D-01  0.000000D+00  0.000000D+00  0.000000D+00
     43  0.000000D+00  0.000000D+00  0.713821D-01  0.000000D+00  0.000000D+00
     44  0.000000D+00  0.000000D+00  0.000000D+00  0.713821D-01  0.000000D+00
     45  0.000000D+00  0.000000D+00  0.000000D+00  0.000000D+00  0.713821D-01
     46  0.000000D+00  0.000000D+00  0.000000D+00  0.000000D+00  0.000000D+00
     47  0.000000D+00  0.235571D-01  0.000000D+00  0.000000D+00  0.000000D+00
     48  0.000000D+00  0.000000D+00  0.235571D-01  0.000000D+00  0.000000D+00
     49  0.000000D+00  0.000000D+00  0.000000D+00  0.235571D-01  0.000000D+00
     50  0.000000D+00  0.000000D+00  0.000000D+00  0.000000D+00  0.235571D-01
     51  0.000000D+00  0.000000D+00  0.000000D+00  0.000000D+00  0.000000D+00
     52  0.000000D+00  0.000000D+00  0.000000D+00  0.000000D+00  0.000000D+00
     53  0.000000D+00  0.000000D+00  0.000000D+00  0.000000D+00  0.000000D+00
     54  0.000000D+00  0.000000D+00  0.000000D+00  0.000000D+00  0.000000D+00
     55  0.000000D+00  0.000000D+00  0.000000D+00  0.000000D+00  0.000000D+00
     56  0.000000D+00  0.000000D+00  0.000000D+00  0.000000D+00  0.000000D+00
     57  0.000000D+00  0.000000D+00  0.000000D+00  0.000000D+00  0.000000D+00
     58  0.000000D+00  0.000000D+00  0.000000D+00  0.000000D+00  0.000000D+00
     59  0.000000D+00  0.000000D+00  0.000000D+00  0.000000D+00  0.000000D+00
     60  0.000000D+00  0.000000D+00  0.000000D+00  0.000000D+00  0.000000D+00
     61  0.000000D+00  0.000000D+00  0.000000D+00  0.000000D+00  0.000000D+00
     62  0.000000D+00  0.000000D+00  0.000000D+00  0.000000D+00  0.000000D+00
     63  0.000000D+00  0.000000D+00  0.000000D+00  0.000000D+00  0.000000D+00
     64  0.000000D+00  0.000000D+00  0.000000D+00  0.000000D+00  0.000000D+00
     65  0.000000D+00  0.000000D+00  0.000000D+00  0.000000D+00  0.000000D+00
               31            32            33            34            35 
     31  0.100000D+01
     32  0.000000D+00  0.100000D+01
     33  0.000000D+00  0.000000D+00  0.100000D+01
     34  0.000000D+00  0.000000D+00  0.000000D+00  0.100000D+01
     35  0.000000D+00  0.000000D+00  0.000000D+00  0.000000D+00  0.100000D+01
     36  0.594239D+00  0.000000D+00  0.000000D+00  0.000000D+00  0.000000D+00
     37  0.000000D+00  0.364736D-01  0.000000D+00  0.000000D+00  0.000000D+00
     38  0.000000D+00  0.000000D+00  0.364736D-01  0.000000D+00  0.000000D+00
     39  0.000000D+00  0.000000D+00  0.000000D+00  0.364736D-01  0.000000D+00
     40  0.000000D+00  0.000000D+00  0.000000D+00  0.000000D+00  0.364736D-01
     41  0.196601D+00  0.000000D+00  0.000000D+00  0.000000D+00  0.000000D+00
     42  0.000000D+00  0.116221D-01  0.000000D+00  0.000000D+00  0.000000D+00
     43  0.000000D+00  0.000000D+00  0.116221D-01  0.000000D+00  0.000000D+00
     44  0.000000D+00  0.000000D+00  0.000000D+00  0.116221D-01  0.000000D+00
     45  0.000000D+00  0.000000D+00  0.000000D+00  0.000000D+00  0.116221D-01
     46  0.713821D-01  0.000000D+00  0.000000D+00  0.000000D+00  0.000000D+00
     47  0.000000D+00  0.357903D-02  0.000000D+00  0.000000D+00  0.000000D+00
     48  0.000000D+00  0.000000D+00  0.357903D-02  0.000000D+00  0.000000D+00
     49  0.000000D+00  0.000000D+00  0.000000D+00  0.357903D-02  0.000000D+00
     50  0.000000D+00  0.000000D+00  0.000000D+00  0.000000D+00  0.357903D-02
     51  0.235571D-01  0.000000D+00  0.000000D+00  0.000000D+00  0.000000D+00
     52  0.000000D+00  0.000000D+00  0.000000D+00  0.000000D+00  0.000000D+00
     53  0.000000D+00  0.000000D+00  0.000000D+00  0.000000D+00  0.000000D+00
     54  0.000000D+00  0.000000D+00  0.000000D+00  0.000000D+00  0.000000D+00
     55  0.000000D+00  0.000000D+00  0.000000D+00  0.000000D+00  0.000000D+00
     56  0.000000D+00  0.000000D+00  0.000000D+00  0.000000D+00  0.000000D+00
     57  0.000000D+00  0.000000D+00  0.000000D+00  0.000000D+00  0.000000D+00
     58  0.000000D+00  0.000000D+00  0.000000D+00  0.000000D+00  0.000000D+00
     59  0.000000D+00  0.000000D+00  0.000000D+00  0.000000D+00  0.000000D+00
     60  0.000000D+00  0.000000D+00  0.000000D+00  0.000000D+00  0.000000D+00
     61  0.000000D+00  0.000000D+00  0.000000D+00  0.000000D+00  0.000000D+00
     62  0.000000D+00  0.000000D+00  0.000000D+00  0.000000D+00  0.000000D+00
     63  0.000000D+00  0.000000D+00  0.000000D+00  0.000000D+00  0.000000D+00
     64  0.000000D+00  0.000000D+00  0.000000D+00  0.000000D+00  0.000000D+00
     65  0.000000D+00  0.000000D+00  0.000000D+00  0.000000D+00  0.000000D+00
               36            37            38            39            40 
     36  0.100000D+01
     37  0.000000D+00  0.100000D+01
     38  0.000000D+00  0.000000D+00  0.100000D+01
     39  0.000000D+00  0.000000D+00  0.000000D+00  0.100000D+01
     40  0.000000D+00  0.000000D+00  0.000000D+00  0.000000D+00  0.100000D+01
     41  0.364736D-01  0.000000D+00  0.000000D+00  0.000000D+00  0.000000D+00
     42  0.000000D+00  0.813735D+00  0.000000D+00  0.000000D+00  0.000000D+00
     43  0.000000D+00  0.000000D+00  0.813735D+00  0.000000D+00  0.000000D+00
     44  0.000000D+00  0.000000D+00  0.000000D+00  0.813735D+00  0.000000D+00
     45  0.000000D+00  0.000000D+00  0.000000D+00  0.000000D+00  0.813735D+00
     46  0.116221D-01  0.000000D+00  0.000000D+00  0.000000D+00  0.000000D+00
     47  0.000000D+00  0.457947D+00  0.000000D+00  0.000000D+00  0.000000D+00
     48  0.000000D+00  0.000000D+00  0.457947D+00  0.000000D+00  0.000000D+00
     49  0.000000D+00  0.000000D+00  0.000000D+00  0.457947D+00  0.000000D+00
     50  0.000000D+00  0.000000D+00  0.000000D+00  0.000000D+00  0.457947D+00
     51  0.357903D-02  0.000000D+00  0.000000D+00  0.000000D+00  0.000000D+00
     52  0.000000D+00  0.000000D+00  0.000000D+00  0.000000D+00  0.000000D+00
     53  0.000000D+00  0.000000D+00  0.000000D+00  0.000000D+00  0.000000D+00
     54  0.000000D+00  0.000000D+00  0.000000D+00  0.000000D+00  0.000000D+00
     55  0.000000D+00  0.000000D+00  0.000000D+00  0.000000D+00  0.000000D+00
     56  0.000000D+00  0.000000D+00  0.000000D+00  0.000000D+00  0.000000D+00
     57  0.000000D+00  0.000000D+00  0.000000D+00  0.000000D+00  0.000000D+00
     58  0.000000D+00  0.000000D+00  0.000000D+00  0.000000D+00  0.000000D+00
     59  0.000000D+00  0.000000D+00  0.000000D+00  0.000000D+00  0.000000D+00
     60  0.000000D+00  0.000000D+00  0.000000D+00  0.000000D+00  0.000000D+00
     61  0.000000D+00  0.000000D+00  0.000000D+00  0.000000D+00  0.000000D+00
     62  0.000000D+00  0.000000D+00  0.000000D+00  0.000000D+00  0.000000D+00
     63  0.000000D+00  0.000000D+00  0.000000D+00  0.000000D+00  0.000000D+00
     64  0.000000D+00  0.000000D+00  0.000000D+00  0.000000D+00  0.000000D+00
     65  0.000000D+00  0.000000D+00  0.000000D+00  0.000000D+00  0.000000D+00
               41            42            43            44            45 
     41  0.100000D+01
     42  0.000000D+00  0.100000D+01
     43  0.000000D+00  0.000000D+00  0.100000D+01
     44  0.000000D+00  0.000000D+00  0.000000D+00  0.100000D+01
     45  0.000000D+00  0.000000D+00  0.000000D+00  0.000000D+00  0.100000D+01
     46  0.813735D+00  0.000000D+00  0.000000D+00  0.000000D+00  0.000000D+00
     47  0.000000D+00  0.813735D+00  0.000000D+00  0.000000D+00  0.000000D+00
     48  0.000000D+00  0.000000D+00  0.813735D+00  0.000000D+00  0.000000D+00
     49  0.000000D+00  0.000000D+00  0.000000D+00  0.813735D+00  0.000000D+00
     50  0.000000D+00  0.000000D+00  0.000000D+00  0.000000D+00  0.813735D+00
     51  0.457947D+00  0.000000D+00  0.000000D+00  0.000000D+00  0.000000D+00
     52  0.000000D+00  0.000000D+00  0.000000D+00  0.000000D+00  0.000000D+00
     53  0.000000D+00  0.000000D+00  0.000000D+00  0.000000D+00  0.000000D+00
     54  0.000000D+00  0.000000D+00  0.000000D+00  0.000000D+00  0.000000D+00
     55  0.000000D+00  0.000000D+00  0.000000D+00  0.000000D+00  0.000000D+00
     56  0.000000D+00  0.000000D+00  0.000000D+00  0.000000D+00  0.000000D+00
     57  0.000000D+00  0.000000D+00  0.000000D+00  0.000000D+00  0.000000D+00
     58  0.000000D+00  0.000000D+00  0.000000D+00  0.000000D+00  0.000000D+00
     59  0.000000D+00  0.000000D+00  0.000000D+00  0.000000D+00  0.000000D+00
     60  0.000000D+00  0.000000D+00  0.000000D+00  0.000000D+00  0.000000D+00
     61  0.000000D+00  0.000000D+00  0.000000D+00  0.000000D+00  0.000000D+00
     62  0.000000D+00  0.000000D+00  0.000000D+00  0.000000D+00  0.000000D+00
     63  0.000000D+00  0.000000D+00  0.000000D+00  0.000000D+00  0.000000D+00
     64  0.000000D+00  0.000000D+00  0.000000D+00  0.000000D+00  0.000000D+00
     65  0.000000D+00  0.000000D+00  0.000000D+00  0.000000D+00  0.000000D+00
               46            47            48            49            50 
     46  0.100000D+01
     47  0.000000D+00  0.100000D+01
     48  0.000000D+00  0.000000D+00  0.100000D+01
     49  0.000000D+00  0.000000D+00  0.000000D+00  0.100000D+01
     50  0.000000D+00  0.000000D+00  0.000000D+00  0.000000D+00  0.100000D+01
     51  0.813735D+00  0.000000D+00  0.000000D+00  0.000000D+00  0.000000D+00
     52  0.000000D+00  0.000000D+00  0.000000D+00  0.000000D+00  0.000000D+00
     53  0.000000D+00  0.000000D+00  0.000000D+00  0.000000D+00  0.000000D+00
     54  0.000000D+00  0.000000D+00  0.000000D+00  0.000000D+00  0.000000D+00
     55  0.000000D+00  0.000000D+00  0.000000D+00  0.000000D+00  0.000000D+00
     56  0.000000D+00  0.000000D+00  0.000000D+00  0.000000D+00  0.000000D+00
     57  0.000000D+00  0.000000D+00  0.000000D+00  0.000000D+00  0.000000D+00
     58  0.000000D+00  0.000000D+00  0.000000D+00  0.000000D+00  0.000000D+00
     59  0.000000D+00  0.000000D+00  0.000000D+00  0.000000D+00  0.000000D+00
     60  0.000000D+00  0.000000D+00  0.000000D+00  0.000000D+00  0.000000D+00
     61  0.000000D+00  0.000000D+00  0.000000D+00  0.000000D+00  0.000000D+00
     62  0.000000D+00  0.000000D+00  0.000000D+00  0.000000D+00  0.000000D+00
     63  0.000000D+00  0.000000D+00  0.000000D+00  0.000000D+00  0.000000D+00
     64  0.000000D+00  0.000000D+00  0.000000D+00  0.000000D+00  0.000000D+00
     65  0.000000D+00  0.000000D+00  0.000000D+00  0.000000D+00  0.000000D+00
               51            52            53            54            55 
     51  0.100000D+01
     52  0.000000D+00  0.100000D+01
     53  0.000000D+00  0.000000D+00  0.100000D+01
     54  0.000000D+00  0.000000D+00  0.000000D+00  0.100000D+01
     55  0.000000D+00  0.000000D+00  0.000000D+00  0.000000D+00  0.100000D+01
     56  0.000000D+00  0.000000D+00  0.000000D+00  0.000000D+00  0.000000D+00
     57  0.000000D+00  0.000000D+00  0.000000D+00  0.000000D+00  0.000000D+00
     58  0.000000D+00  0.000000D+00  0.000000D+00  0.000000D+00  0.000000D+00
     59  0.000000D+00  0.678620D-02  0.000000D+00  0.000000D+00  0.000000D+00
     60  0.000000D+00  0.000000D+00  0.678620D-02  0.000000D+00  0.000000D+00
     61  0.000000D+00  0.000000D+00  0.000000D+00  0.678620D-02  0.000000D+00
     62  0.000000D+00  0.000000D+00  0.000000D+00  0.000000D+00  0.678620D-02
     63  0.000000D+00  0.000000D+00  0.000000D+00  0.000000D+00  0.000000D+00
     64  0.000000D+00  0.000000D+00  0.000000D+00  0.000000D+00  0.000000D+00
     65  0.000000D+00  0.000000D+00  0.000000D+00  0.000000D+00  0.000000D+00
               56            57            58            59            60 
     56  0.100000D+01
     57  0.000000D+00  0.100000D+01
     58  0.000000D+00  0.000000D+00  0.100000D+01
     59  0.000000D+00  0.000000D+00  0.000000D+00  0.100000D+01
     60  0.000000D+00  0.000000D+00  0.000000D+00  0.000000D+00  0.100000D+01
     61  0.000000D+00  0.000000D+00  0.000000D+00  0.000000D+00  0.000000D+00
     62  0.000000D+00  0.000000D+00  0.000000D+00  0.000000D+00  0.000000D+00
     63  0.678620D-02  0.000000D+00  0.000000D+00  0.000000D+00  0.000000D+00
     64  0.000000D+00  0.678620D-02  0.000000D+00  0.000000D+00  0.000000D+00
     65  0.000000D+00  0.000000D+00  0.678620D-02  0.000000D+00  0.000000D+00
               61            62            63            64            65 
     61  0.100000D+01
     62  0.000000D+00  0.100000D+01
     63  0.000000D+00  0.000000D+00  0.100000D+01
     64  0.000000D+00  0.000000D+00  0.000000D+00  0.100000D+01
     65  0.000000D+00  0.000000D+00  0.000000D+00  0.000000D+00  0.100000D+01
 *** Kinetic Energy *** 
                1             2             3             4             5 
      1  0.154161D+03
      2 -0.883952D+01  0.775169D+01
      3 -0.991492D+00 -0.175062D+01  0.133320D+01
      4  0.537306D+00  0.209517D+01  0.181963D+00  0.179400D+01
      5  0.241320D-01  0.150527D+00  0.347313D+00  0.291866D+00  0.293100D+00
      6  0.696820D-03  0.478197D-02  0.212339D-01  0.115290D-01  0.347715D-01
      7  0.207355D-03  0.143361D-02  0.673442D-02  0.351906D-02  0.120005D-01
      8  0.616753D-04  0.428003D-03  0.206892D-02  0.106020D-02  0.385741D-02
      9  0.000000D+00  0.000000D+00  0.000000D+00  0.000000D+00  0.000000D+00
     10  0.000000D+00  0.000000D+00  0.000000D+00  0.000000D+00  0.000000D+00
     11  0.000000D+00  0.000000D+00  0.000000D+00  0.000000D+00  0.000000D+00
     12  0.000000D+00  0.000000D+00  0.000000D+00  0.000000D+00  0.000000D+00
     13  0.000000D+00  0.000000D+00  0.000000D+00  0.000000D+00  0.000000D+00
     14  0.000000D+00  0.000000D+00  0.000000D+00  0.000000D+00  0.000000D+00
     15  0.000000D+00  0.000000D+00  0.000000D+00  0.000000D+00  0.000000D+00
     16  0.000000D+00  0.000000D+00  0.000000D+00  0.000000D+00  0.000000D+00
     17  0.000000D+00  0.000000D+00  0.000000D+00  0.000000D+00  0.000000D+00
     18  0.000000D+00  0.000000D+00  0.000000D+00  0.000000D+00  0.000000D+00
     19  0.000000D+00  0.000000D+00  0.000000D+00  0.000000D+00  0.000000D+00
     20  0.000000D+00  0.000000D+00  0.000000D+00  0.000000D+00  0.000000D+00
     21  0.000000D+00  0.000000D+00  0.000000D+00  0.000000D+00  0.000000D+00
     22  0.000000D+00  0.000000D+00  0.000000D+00  0.000000D+00  0.000000D+00
     23  0.000000D+00  0.000000D+00  0.000000D+00  0.000000D+00  0.000000D+00
     24  0.000000D+00  0.000000D+00  0.000000D+00  0.000000D+00  0.000000D+00
     25  0.000000D+00  0.000000D+00  0.000000D+00  0.000000D+00  0.000000D+00
     26  0.000000D+00  0.000000D+00  0.000000D+00  0.000000D+00  0.000000D+00
     27  0.000000D+00  0.000000D+00  0.000000D+00  0.000000D+00  0.000000D+00
     28  0.000000D+00  0.000000D+00  0.000000D+00  0.000000D+00  0.000000D+00
     29  0.000000D+00  0.000000D+00  0.000000D+00  0.000000D+00  0.000000D+00
     30  0.000000D+00  0.000000D+00  0.000000D+00  0.000000D+00  0.000000D+00
     31  0.000000D+00  0.000000D+00  0.000000D+00  0.000000D+00  0.000000D+00
     32  0.000000D+00  0.000000D+00  0.000000D+00  0.000000D+00  0.000000D+00
     33  0.000000D+00  0.000000D+00  0.000000D+00  0.000000D+00  0.000000D+00
     34  0.000000D+00  0.000000D+00  0.000000D+00  0.000000D+00  0.000000D+00
     35  0.000000D+00  0.000000D+00  0.000000D+00  0.000000D+00  0.000000D+00
     36  0.000000D+00  0.000000D+00  0.000000D+00  0.000000D+00  0.000000D+00
     37  0.000000D+00  0.000000D+00  0.000000D+00  0.000000D+00  0.000000D+00
     38  0.000000D+00  0.000000D+00  0.000000D+00  0.000000D+00  0.000000D+00
     39  0.000000D+00  0.000000D+00  0.000000D+00  0.000000D+00  0.000000D+00
     40  0.000000D+00  0.000000D+00  0.000000D+00  0.000000D+00  0.000000D+00
     41  0.000000D+00  0.000000D+00  0.000000D+00  0.000000D+00  0.000000D+00
     42  0.000000D+00  0.000000D+00  0.000000D+00  0.000000D+00  0.000000D+00
     43  0.000000D+00  0.000000D+00  0.000000D+00  0.000000D+00  0.000000D+00
     44  0.000000D+00  0.000000D+00  0.000000D+00  0.000000D+00  0.000000D+00
     45  0.000000D+00  0.000000D+00  0.000000D+00  0.000000D+00  0.000000D+00
     46  0.000000D+00  0.000000D+00  0.000000D+00  0.000000D+00  0.000000D+00
     47  0.000000D+00  0.000000D+00  0.000000D+00  0.000000D+00  0.000000D+00
     48  0.000000D+00  0.000000D+00  0.000000D+00  0.000000D+00  0.000000D+00
     49  0.000000D+00  0.000000D+00  0.000000D+00  0.000000D+00  0.000000D+00
     50  0.000000D+00  0.000000D+00  0.000000D+00  0.000000D+00  0.000000D+00
     51  0.000000D+00  0.000000D+00  0.000000D+00  0.000000D+00  0.000000D+00
     52  0.000000D+00  0.000000D+00  0.000000D+00  0.000000D+00  0.000000D+00
     53  0.000000D+00  0.000000D+00  0.000000D+00  0.000000D+00  0.000000D+00
     54  0.000000D+00  0.000000D+00  0.000000D+00  0.000000D+00  0.000000D+00
     55  0.000000D+00  0.000000D+00  0.000000D+00  0.000000D+00  0.000000D+00
     56  0.000000D+00  0.000000D+00  0.000000D+00  0.000000D+00  0.000000D+00
     57  0.000000D+00  0.000000D+00  0.000000D+00  0.000000D+00  0.000000D+00
     58  0.000000D+00  0.000000D+00  0.000000D+00  0.000000D+00  0.000000D+00
     59  0.000000D+00  0.000000D+00  0.000000D+00  0.000000D+00  0.000000D+00
     60  0.000000D+00  0.000000D+00  0.000000D+00  0.000000D+00  0.000000D+00
     61  0.000000D+00  0.000000D+00  0.000000D+00  0.000000D+00  0.000000D+00
     62  0.000000D+00  0.000000D+00  0.000000D+00  0.000000D+00  0.000000D+00
     63  0.000000D+00  0.000000D+00  0.000000D+00  0.000000D+00  0.000000D+00
     64  0.000000D+00  0.000000D+00  0.000000D+00  0.000000D+00  0.000000D+00
     65  0.000000D+00  0.000000D+00  0.000000D+00  0.000000D+00  0.000000D+00
                6             7             8             9            10 
      6  0.384000D-01
      7  0.234356D-01  0.192000D-01
      8  0.109907D-01  0.117178D-01  0.960000D-02
      9  0.000000D+00  0.000000D+00  0.000000D+00  0.249778D+02
     10  0.000000D+00  0.000000D+00  0.000000D+00  0.000000D+00  0.249778D+02
     11  0.000000D+00  0.000000D+00  0.000000D+00  0.000000D+00  0.000000D+00
     12  0.000000D+00  0.000000D+00  0.000000D+00 -0.425092D+00  0.000000D+00
     13  0.000000D+00  0.000000D+00  0.000000D+00  0.000000D+00 -0.425092D+00
     14  0.000000D+00  0.000000D+00  0.000000D+00  0.000000D+00  0.000000D+00
     15  0.000000D+00  0.000000D+00  0.000000D+00  0.222967D+01  0.000000D+00
     16  0.000000D+00  0.000000D+00  0.000000D+00  0.000000D+00  0.222967D+01
     17  0.000000D+00  0.000000D+00  0.000000D+00  0.000000D+00  0.000000D+00
     18  0.000000D+00  0.000000D+00  0.000000D+00  0.430401D-01  0.000000D+00
     19  0.000000D+00  0.000000D+00  0.000000D+00  0.000000D+00  0.430401D-01
     20  0.000000D+00  0.000000D+00  0.000000D+00  0.000000D+00  0.000000D+00
     21  0.000000D+00  0.000000D+00  0.000000D+00  0.833899D-03  0.000000D+00
     22  0.000000D+00  0.000000D+00  0.000000D+00  0.000000D+00  0.833899D-03
     23  0.000000D+00  0.000000D+00  0.000000D+00  0.000000D+00  0.000000D+00
     24  0.000000D+00  0.000000D+00  0.000000D+00  0.177118D-03  0.000000D+00
     25  0.000000D+00  0.000000D+00  0.000000D+00  0.000000D+00  0.177118D-03
     26  0.000000D+00  0.000000D+00  0.000000D+00  0.000000D+00  0.000000D+00
     27  0.000000D+00  0.000000D+00  0.000000D+00  0.000000D+00  0.000000D+00
     28  0.000000D+00  0.000000D+00  0.000000D+00  0.000000D+00  0.000000D+00
     29  0.000000D+00  0.000000D+00  0.000000D+00  0.000000D+00  0.000000D+00
     30  0.000000D+00  0.000000D+00  0.000000D+00  0.000000D+00  0.000000D+00
     31  0.000000D+00  0.000000D+00  0.000000D+00  0.000000D+00  0.000000D+00
     32  0.000000D+00  0.000000D+00  0.000000D+00  0.000000D+00  0.000000D+00
     33  0.000000D+00  0.000000D+00  0.000000D+00  0.000000D+00  0.000000D+00
     34  0.000000D+00  0.000000D+00  0.000000D+00  0.000000D+00  0.000000D+00
     35  0.000000D+00  0.000000D+00  0.000000D+00  0.000000D+00  0.000000D+00
     36  0.000000D+00  0.000000D+00  0.000000D+00  0.000000D+00  0.000000D+00
     37  0.000000D+00  0.000000D+00  0.000000D+00  0.000000D+00  0.000000D+00
     38  0.000000D+00  0.000000D+00  0.000000D+00  0.000000D+00  0.000000D+00
     39  0.000000D+00  0.000000D+00  0.000000D+00  0.000000D+00  0.000000D+00
     40  0.000000D+00  0.000000D+00  0.000000D+00  0.000000D+00  0.000000D+00
     41  0.000000D+00  0.000000D+00  0.000000D+00  0.000000D+00  0.000000D+00
     42  0.000000D+00  0.000000D+00  0.000000D+00  0.000000D+00  0.000000D+00
     43  0.000000D+00  0.000000D+00  0.000000D+00  0.000000D+00  0.000000D+00
     44  0.000000D+00  0.000000D+00  0.000000D+00  0.000000D+00  0.000000D+00
     45  0.000000D+00  0.000000D+00  0.000000D+00  0.000000D+00  0.000000D+00
     46  0.000000D+00  0.000000D+00  0.000000D+00  0.000000D+00  0.000000D+00
     47  0.000000D+00  0.000000D+00  0.000000D+00  0.000000D+00  0.000000D+00
     48  0.000000D+00  0.000000D+00  0.000000D+00  0.000000D+00  0.000000D+00
     49  0.000000D+00  0.000000D+00  0.000000D+00  0.000000D+00  0.000000D+00
     50  0.000000D+00  0.000000D+00  0.000000D+00  0.000000D+00  0.000000D+00
     51  0.000000D+00  0.000000D+00  0.000000D+00  0.000000D+00  0.000000D+00
     52  0.000000D+00  0.000000D+00  0.000000D+00  0.000000D+00  0.000000D+00
     53  0.000000D+00  0.000000D+00  0.000000D+00  0.000000D+00  0.000000D+00
     54  0.000000D+00  0.000000D+00  0.000000D+00  0.000000D+00  0.000000D+00
     55  0.000000D+00  0.000000D+00  0.000000D+00  0.000000D+00  0.000000D+00
     56  0.000000D+00  0.000000D+00  0.000000D+00  0.000000D+00  0.000000D+00
     57  0.000000D+00  0.000000D+00  0.000000D+00  0.000000D+00  0.000000D+00
     58  0.000000D+00  0.000000D+00  0.000000D+00  0.000000D+00  0.000000D+00
     59  0.000000D+00  0.000000D+00  0.000000D+00  0.000000D+00  0.000000D+00
     60  0.000000D+00  0.000000D+00  0.000000D+00  0.000000D+00  0.000000D+00
     61  0.000000D+00  0.000000D+00  0.000000D+00  0.000000D+00  0.000000D+00
     62  0.000000D+00  0.000000D+00  0.000000D+00  0.000000D+00  0.000000D+00
     63  0.000000D+00  0.000000D+00  0.000000D+00  0.000000D+00  0.000000D+00
     64  0.000000D+00  0.000000D+00  0.000000D+00  0.000000D+00  0.000000D+00
     65  0.000000D+00  0.000000D+00  0.000000D+00  0.000000D+00  0.000000D+00
               11            12            13            14            15 
     11  0.249778D+02
     12  0.000000D+00  0.115480D+01
     13  0.000000D+00  0.000000D+00  0.115480D+01
     14 -0.425092D+00  0.000000D+00  0.000000D+00  0.115480D+01
     15  0.000000D+00  0.119476D+01  0.000000D+00  0.000000D+00  0.301500D+01
     16  0.000000D+00  0.000000D+00  0.119476D+01  0.000000D+00  0.000000D+00
     17  0.222967D+01  0.000000D+00  0.000000D+00  0.119476D+01  0.000000D+00
     18  0.000000D+00  0.408191D+00  0.000000D+00  0.000000D+00  0.219645D+00
     19  0.000000D+00  0.000000D+00  0.408191D+00  0.000000D+00  0.000000D+00
     20  0.430401D-01  0.000000D+00  0.000000D+00  0.408191D+00  0.000000D+00
     21  0.000000D+00  0.165003D-01  0.000000D+00  0.000000D+00  0.545095D-02
     22  0.000000D+00  0.000000D+00  0.165003D-01  0.000000D+00  0.000000D+00
     23  0.833899D-03  0.000000D+00  0.000000D+00  0.165003D-01  0.000000D+00
     24  0.000000D+00  0.381464D-02  0.000000D+00  0.000000D+00  0.118860D-02
     25  0.000000D+00  0.000000D+00  0.381464D-02  0.000000D+00  0.000000D+00
     26  0.177118D-03  0.000000D+00  0.000000D+00  0.381464D-02  0.000000D+00
     27  0.000000D+00  0.000000D+00  0.000000D+00  0.000000D+00  0.000000D+00
     28  0.000000D+00  0.000000D+00  0.000000D+00  0.000000D+00  0.000000D+00
     29  0.000000D+00  0.000000D+00  0.000000D+00  0.000000D+00  0.000000D+00
     30  0.000000D+00  0.000000D+00  0.000000D+00  0.000000D+00  0.000000D+00
     31  0.000000D+00  0.000000D+00  0.000000D+00  0.000000D+00  0.000000D+00
     32  0.000000D+00  0.000000D+00  0.000000D+00  0.000000D+00  0.000000D+00
     33  0.000000D+00  0.000000D+00  0.000000D+00  0.000000D+00  0.000000D+00
     34  0.000000D+00  0.000000D+00  0.000000D+00  0.000000D+00  0.000000D+00
     35  0.000000D+00  0.000000D+00  0.000000D+00  0.000000D+00  0.000000D+00
     36  0.000000D+00  0.000000D+00  0.000000D+00  0.000000D+00  0.000000D+00
     37  0.000000D+00  0.000000D+00  0.000000D+00  0.000000D+00  0.000000D+00
     38  0.000000D+00  0.000000D+00  0.000000D+00  0.000000D+00  0.000000D+00
     39  0.000000D+00  0.000000D+00  0.000000D+00  0.000000D+00  0.000000D+00
     40  0.000000D+00  0.000000D+00  0.000000D+00  0.000000D+00  0.000000D+00
     41  0.000000D+00  0.000000D+00  0.000000D+00  0.000000D+00  0.000000D+00
     42  0.000000D+00  0.000000D+00  0.000000D+00  0.000000D+00  0.000000D+00
     43  0.000000D+00  0.000000D+00  0.000000D+00  0.000000D+00  0.000000D+00
     44  0.000000D+00  0.000000D+00  0.000000D+00  0.000000D+00  0.000000D+00
     45  0.000000D+00  0.000000D+00  0.000000D+00  0.000000D+00  0.000000D+00
     46  0.000000D+00  0.000000D+00  0.000000D+00  0.000000D+00  0.000000D+00
     47  0.000000D+00  0.000000D+00  0.000000D+00  0.000000D+00  0.000000D+00
     48  0.000000D+00  0.000000D+00  0.000000D+00  0.000000D+00  0.000000D+00
     49  0.000000D+00  0.000000D+00  0.000000D+00  0.000000D+00  0.000000D+00
     50  0.000000D+00  0.000000D+00  0.000000D+00  0.000000D+00  0.000000D+00
     51  0.000000D+00  0.000000D+00  0.000000D+00  0.000000D+00  0.000000D+00
     52  0.000000D+00  0.000000D+00  0.000000D+00  0.000000D+00  0.000000D+00
     53  0.000000D+00  0.000000D+00  0.000000D+00  0.000000D+00  0.000000D+00
     54  0.000000D+00  0.000000D+00  0.000000D+00  0.000000D+00  0.000000D+00
     55  0.000000D+00  0.000000D+00  0.000000D+00  0.000000D+00  0.000000D+00
     56  0.000000D+00  0.000000D+00  0.000000D+00  0.000000D+00  0.000000D+00
     57  0.000000D+00  0.000000D+00  0.000000D+00  0.000000D+00  0.000000D+00
     58  0.000000D+00  0.000000D+00  0.000000D+00  0.000000D+00  0.000000D+00
     59  0.000000D+00  0.000000D+00  0.000000D+00  0.000000D+00  0.000000D+00
     60  0.000000D+00  0.000000D+00  0.000000D+00  0.000000D+00  0.000000D+00
     61  0.000000D+00  0.000000D+00  0.000000D+00  0.000000D+00  0.000000D+00
     62  0.000000D+00  0.000000D+00  0.000000D+00  0.000000D+00  0.000000D+00
     63  0.000000D+00  0.000000D+00  0.000000D+00  0.000000D+00  0.000000D+00
     64  0.000000D+00  0.000000D+00  0.000000D+00  0.000000D+00  0.000000D+00
     65  0.000000D+00  0.000000D+00  0.000000D+00  0.000000D+00  0.000000D+00
               16            17            18            19            20 
     16  0.301500D+01
     17  0.000000D+00  0.301500D+01
     18  0.000000D+00  0.000000D+00  0.386250D+00
     19  0.219645D+00  0.000000D+00  0.000000D+00  0.386250D+00
     20  0.000000D+00  0.219645D+00  0.000000D+00  0.000000D+00  0.386250D+00
     21  0.000000D+00  0.000000D+00  0.447586D-01  0.000000D+00  0.000000D+00
     22  0.545095D-02  0.000000D+00  0.000000D+00  0.447586D-01  0.000000D+00
     23  0.000000D+00  0.545095D-02  0.000000D+00  0.000000D+00  0.447586D-01
     24  0.000000D+00  0.000000D+00  0.121793D-01  0.000000D+00  0.000000D+00
     25  0.118860D-02  0.000000D+00  0.000000D+00  0.121793D-01  0.000000D+00
     26  0.000000D+00  0.118860D-02  0.000000D+00  0.000000D+00  0.121793D-01
     27  0.000000D+00  0.000000D+00  0.000000D+00  0.000000D+00  0.000000D+00
     28  0.000000D+00  0.000000D+00  0.000000D+00  0.000000D+00  0.000000D+00
     29  0.000000D+00  0.000000D+00  0.000000D+00  0.000000D+00  0.000000D+00
     30  0.000000D+00  0.000000D+00  0.000000D+00  0.000000D+00  0.000000D+00
     31  0.000000D+00  0.000000D+00  0.000000D+00  0.000000D+00  0.000000D+00
     32  0.000000D+00  0.000000D+00  0.000000D+00  0.000000D+00  0.000000D+00
     33  0.000000D+00  0.000000D+00  0.000000D+00  0.000000D+00  0.000000D+00
     34  0.000000D+00  0.000000D+00  0.000000D+00  0.000000D+00  0.000000D+00
     35  0.000000D+00  0.000000D+00  0.000000D+00  0.000000D+00  0.000000D+00
     36  0.000000D+00  0.000000D+00  0.000000D+00  0.000000D+00  0.000000D+00
     37  0.000000D+00  0.000000D+00  0.000000D+00  0.000000D+00  0.000000D+00
     38  0.000000D+00  0.000000D+00  0.000000D+00  0.000000D+00  0.000000D+00
     39  0.000000D+00  0.000000D+00  0.000000D+00  0.000000D+00  0.000000D+00
     40  0.000000D+00  0.000000D+00  0.000000D+00  0.000000D+00  0.000000D+00
     41  0.000000D+00  0.000000D+00  0.000000D+00  0.000000D+00  0.000000D+00
     42  0.000000D+00  0.000000D+00  0.000000D+00  0.000000D+00  0.000000D+00
     43  0.000000D+00  0.000000D+00  0.000000D+00  0.000000D+00  0.000000D+00
     44  0.000000D+00  0.000000D+00  0.000000D+00  0.000000D+00  0.000000D+00
     45  0.000000D+00  0.000000D+00  0.000000D+00  0.000000D+00  0.000000D+00
     46  0.000000D+00  0.000000D+00  0.000000D+00  0.000000D+00  0.000000D+00
     47  0.000000D+00  0.000000D+00  0.000000D+00  0.000000D+00  0.000000D+00
     48  0.000000D+00  0.000000D+00  0.000000D+00  0.000000D+00  0.000000D+00
     49  0.000000D+00  0.000000D+00  0.000000D+00  0.000000D+00  0.000000D+00
     50  0.000000D+00  0.000000D+00  0.000000D+00  0.000000D+00  0.000000D+00
     51  0.000000D+00  0.000000D+00  0.000000D+00  0.000000D+00  0.000000D+00
     52  0.000000D+00  0.000000D+00  0.000000D+00  0.000000D+00  0.000000D+00
     53  0.000000D+00  0.000000D+00  0.000000D+00  0.000000D+00  0.000000D+00
     54  0.000000D+00  0.000000D+00  0.000000D+00  0.000000D+00  0.000000D+00
     55  0.000000D+00  0.000000D+00  0.000000D+00  0.000000D+00  0.000000D+00
     56  0.000000D+00  0.000000D+00  0.000000D+00  0.000000D+00  0.000000D+00
     57  0.000000D+00  0.000000D+00  0.000000D+00  0.000000D+00  0.000000D+00
     58  0.000000D+00  0.000000D+00  0.000000D+00  0.000000D+00  0.000000D+00
     59  0.000000D+00  0.000000D+00  0.000000D+00  0.000000D+00  0.000000D+00
     60  0.000000D+00  0.000000D+00  0.000000D+00  0.000000D+00  0.000000D+00
     61  0.000000D+00  0.000000D+00  0.000000D+00  0.000000D+00  0.000000D+00
     62  0.000000D+00  0.000000D+00  0.000000D+00  0.000000D+00  0.000000D+00
     63  0.000000D+00  0.000000D+00  0.000000D+00  0.000000D+00  0.000000D+00
     64  0.000000D+00  0.000000D+00  0.000000D+00  0.000000D+00  0.000000D+00
     65  0.000000D+00  0.000000D+00  0.000000D+00  0.000000D+00  0.000000D+00
               21            22            23            24            25 
     21  0.640000D-01
     22  0.000000D+00  0.640000D-01
     23  0.000000D+00  0.000000D+00  0.640000D-01
     24  0.368254D-01  0.000000D+00  0.000000D+00  0.320000D-01
     25  0.000000D+00  0.368254D-01  0.000000D+00  0.000000D+00  0.320000D-01
     26  0.000000D+00  0.000000D+00  0.368254D-01  0.000000D+00  0.000000D+00
     27  0.000000D+00  0.000000D+00  0.000000D+00  0.000000D+00  0.000000D+00
     28  0.000000D+00  0.000000D+00  0.000000D+00  0.000000D+00  0.000000D+00
     29  0.000000D+00  0.000000D+00  0.000000D+00  0.000000D+00  0.000000D+00
     30  0.000000D+00  0.000000D+00  0.000000D+00  0.000000D+00  0.000000D+00
     31  0.000000D+00  0.000000D+00  0.000000D+00  0.000000D+00  0.000000D+00
     32  0.000000D+00  0.000000D+00  0.000000D+00  0.000000D+00  0.000000D+00
     33  0.000000D+00  0.000000D+00  0.000000D+00  0.000000D+00  0.000000D+00
     34  0.000000D+00  0.000000D+00  0.000000D+00  0.000000D+00  0.000000D+00
     35  0.000000D+00  0.000000D+00  0.000000D+00  0.000000D+00  0.000000D+00
     36  0.000000D+00  0.000000D+00  0.000000D+00  0.000000D+00  0.000000D+00
     37  0.000000D+00  0.000000D+00  0.000000D+00  0.000000D+00  0.000000D+00
     38  0.000000D+00  0.000000D+00  0.000000D+00  0.000000D+00  0.000000D+00
     39  0.000000D+00  0.000000D+00  0.000000D+00  0.000000D+00  0.000000D+00
     40  0.000000D+00  0.000000D+00  0.000000D+00  0.000000D+00  0.000000D+00
     41  0.000000D+00  0.000000D+00  0.000000D+00  0.000000D+00  0.000000D+00
     42  0.000000D+00  0.000000D+00  0.000000D+00  0.000000D+00  0.000000D+00
     43  0.000000D+00  0.000000D+00  0.000000D+00  0.000000D+00  0.000000D+00
     44  0.000000D+00  0.000000D+00  0.000000D+00  0.000000D+00  0.000000D+00
     45  0.000000D+00  0.000000D+00  0.000000D+00  0.000000D+00  0.000000D+00
     46  0.000000D+00  0.000000D+00  0.000000D+00  0.000000D+00  0.000000D+00
     47  0.000000D+00  0.000000D+00  0.000000D+00  0.000000D+00  0.000000D+00
     48  0.000000D+00  0.000000D+00  0.000000D+00  0.000000D+00  0.000000D+00
     49  0.000000D+00  0.000000D+00  0.000000D+00  0.000000D+00  0.000000D+00
     50  0.000000D+00  0.000000D+00  0.000000D+00  0.000000D+00  0.000000D+00
     51  0.000000D+00  0.000000D+00  0.000000D+00  0.000000D+00  0.000000D+00
     52  0.000000D+00  0.000000D+00  0.000000D+00  0.000000D+00  0.000000D+00
[...]
  58         V                 2.923187          4.005165
  59         V                 2.923187          4.005165
  60         V                 2.923187          4.005165
  61         V                 2.923187          4.005165
  62         V                 2.978922          9.921578
  63         V                 2.978922          9.921578
  64         V                 2.978922          9.921578
  65         V                 5.731988         16.985652
 Total kinetic energy from orbitals= 5.267992710393D+02
 Leave Link  601 at Sun Oct 19 13:27:46 2025, MaxMem=  4294967296 cpu:               0.1 elap:               0.0
 (Enter /home/andy/gdvj28p/gdv/l9999.exe)
 Electronic transition elements 
                 1             2             3             4             5 
      1  -0.526375D+03 -0.526375D+03 -0.526375D+03 -0.526364D+03 -0.526364D+03
      2   0.000000D+00  0.000000D+00  0.000000D+00  0.166216D-01 -0.311546D+00
      3   0.000000D+00  0.000000D+00  0.000000D+00 -0.115171D+00 -0.497893D+00
      4   0.000000D+00  0.000000D+00  0.000000D+00 -0.582610D+00  0.895358D-01
      5   0.000000D+00  0.000000D+00  0.000000D+00 -0.712633D-02  0.133572D+00
      6   0.000000D+00  0.000000D+00  0.000000D+00  0.493783D-01  0.213466D+00
      7   0.000000D+00  0.000000D+00  0.000000D+00  0.249787D+00 -0.383874D-01
      8   0.000000D+00  0.000000D+00  0.000000D+00  0.000000D+00  0.000000D+00
      9   0.000000D+00  0.000000D+00  0.000000D+00  0.000000D+00  0.000000D+00
     10   0.000000D+00  0.000000D+00  0.000000D+00  0.000000D+00  0.000000D+00
     11   0.000000D+00  0.000000D+00  0.000000D+00  0.000000D+00  0.000000D+00
     12   0.000000D+00  0.000000D+00  0.000000D+00  0.000000D+00  0.000000D+00
     13   0.000000D+00  0.000000D+00  0.000000D+00  0.000000D+00  0.000000D+00
     14   0.000000D+00  0.000000D+00  0.000000D+00  0.000000D+00  0.000000D+00
     15   0.000000D+00  0.000000D+00  0.000000D+00  0.000000D+00  0.000000D+00
     16   0.000000D+00  0.000000D+00  0.000000D+00  0.000000D+00  0.000000D+00
                 6             7             8             9            10 
      1  -0.526364D+03 -0.526332D+03 -0.526320D+03 -0.526320D+03 -0.526320D+03
      2  -0.505607D+00  0.000000D+00  0.000000D+00  0.000000D+00  0.000000D+00
      3   0.303007D+00  0.000000D+00  0.000000D+00  0.000000D+00  0.000000D+00
      4  -0.743236D-01  0.000000D+00  0.000000D+00  0.000000D+00  0.000000D+00
      5   0.216773D+00  0.000000D+00  0.000000D+00  0.000000D+00  0.000000D+00
      6  -0.129911D+00  0.000000D+00  0.000000D+00  0.000000D+00  0.000000D+00
      7   0.318654D-01  0.000000D+00  0.000000D+00  0.000000D+00  0.000000D+00
      8   0.000000D+00  0.000000D+00  0.000000D+00  0.000000D+00  0.000000D+00
      9   0.000000D+00  0.000000D+00  0.000000D+00  0.000000D+00  0.000000D+00
     10   0.000000D+00  0.000000D+00  0.000000D+00  0.000000D+00  0.000000D+00
     11   0.000000D+00  0.000000D+00  0.000000D+00  0.000000D+00  0.000000D+00
     12   0.000000D+00  0.000000D+00  0.000000D+00  0.000000D+00  0.000000D+00
     13   0.000000D+00  0.000000D+00  0.000000D+00  0.000000D+00  0.000000D+00
     14   0.000000D+00  0.000000D+00  0.000000D+00  0.000000D+00  0.000000D+00
     15   0.000000D+00  0.000000D+00  0.000000D+00  0.000000D+00  0.000000D+00
     16   0.000000D+00  0.000000D+00  0.000000D+00  0.000000D+00  0.000000D+00
                11            12            13            14            15 
      1  -0.526320D+03 -0.526320D+03 -0.526316D+03 -0.526316D+03 -0.526316D+03
      2   0.000000D+00  0.000000D+00  0.000000D+00  0.000000D+00  0.000000D+00
      3   0.000000D+00  0.000000D+00  0.000000D+00  0.000000D+00  0.000000D+00
      4   0.000000D+00  0.000000D+00  0.000000D+00  0.000000D+00  0.000000D+00
      5   0.000000D+00  0.000000D+00  0.000000D+00  0.000000D+00  0.000000D+00
      6   0.000000D+00  0.000000D+00  0.000000D+00  0.000000D+00  0.000000D+00
      7   0.000000D+00  0.000000D+00  0.000000D+00  0.000000D+00  0.000000D+00
      8   0.000000D+00  0.000000D+00  0.000000D+00  0.000000D+00  0.000000D+00
      9   0.000000D+00  0.000000D+00  0.000000D+00  0.000000D+00  0.000000D+00
     10   0.000000D+00  0.000000D+00  0.000000D+00  0.000000D+00  0.000000D+00
     11   0.000000D+00  0.000000D+00 -0.478021D-01 -0.105771D+00 -0.192162D+00
     12   0.000000D+00  0.000000D+00 -0.203692D+00 -0.163958D+00  0.837023D-01
     13   0.000000D+00  0.000000D+00  0.251494D+00  0.269729D+00  0.108459D+00
     14   0.000000D+00  0.000000D+00 -0.631036D-01 -0.133296D+00 -0.277488D-01
     15   0.000000D+00  0.000000D+00 -0.186232D+00  0.810413D-01  0.263503D+00
     16   0.000000D+00  0.000000D+00 -0.201649D+00  0.230416D+00 -0.186538D+00

 Test job not archived.
 1\1\GINC-HERMES\SP\UCIS-FC\Gen\Ar1\ANDY\19-Oct-2025\0\\#P ucis(mo,nsta
 tes=15)/cc-pVTZ extrabasis gfprint nosymm int(acc2e=16) SCF(NoVarAcc,N
 oIncFock,MaxCYC=64) IOp(3/196=1) IOp(3/33=1) Pop=Full IOp(3/194=100035
 01,3/195=5,6/18=1,8/10=91,8/37=6,8/38=-11,9/127=2) OUTPUT=(faf,i4lab,F
 iles=(514,619,751,870,1,2,3,4,5,6,7,8,9,10,11,12,13,14))\\Title Card R
 equired\\0,1\Ar,0,0.,0.,0.\\Version=ES64L-GDVRevJ.28+\HF=-526.8133927\
 MP2=-526.9619258\PUHF=-526.8133927\PMP2-0=-526.9619258\S2=0.\S2-1=0.\S
 2A=0.\RMSD=3.321e-09\PG=OH [O(Ar1)]\\@


 LIFE IS A CONTINUAL STRUGGLE AGAINST THE TENDENCY TO PRODUCE ENTROPY.
 RW2BAF: Writing unformatted file "MatrixElements.faf"
 Gaussian matrix elements                                         Version   3 NLab=11 I4Labs=T I2Labs=F
 Write SHELL TO ATOM MAP                   from file      0 offset           0 length                  21 to binary array file.
 Write SHELL TYPES                         from file      0 offset           0 length                  21 to binary array file.
 Write NUMBER OF PRIMITIVES PER SHELL      from file      0 offset           0 length                  21 to binary array file.
 Write PRIMITIVE EXPONENTS                 from file      0 offset           0 length                  55 to binary array file.
 Write CONTRACTION COEFFICIENTS            from file      0 offset           0 length                  55 to binary array file.
 Write P(S=P) CONTRACTION COEFFICIENTS     from file      0 offset           0 length                  55 to binary array file.
 Write COORDINATES OF EACH SHELL           from file      0 offset           0 length                  63 to binary array file.
 Write ONIOM CHARGE/MULT                   from file      0 offset           0 length                  32 to binary array file.
 Write ONIOM ATOM LAYERS                   from file      0 offset           0 length                   1 to binary array file.
 Write ONIOM ATOM MODIFIERS                from file      0 offset           0 length                   1 to binary array file.
 Write ONIOM ATOM TYPES                    from file      0 offset           0 length                   1 to binary array file.
 Write ONIOM LINK ATOMS                    from file      0 offset           0 length                   1 to binary array file.
 Write ONIOM LINK CHARGES                  from file      0 offset           0 length                   1 to binary array file.
 Write ONIOM LINK DISTANCES                from file      0 offset           0 length                   4 to binary array file.
 Write SYMINF INTEGERS                     from file      0 offset           0 length                  26 to binary array file.
 Write ROTTR TO INPUT ORIENTATION          from file      0 offset           0 length                  12 to binary array file.
 Write TITLE                               from file      0 offset           0 length                   5 to binary array file.
 Write ROUTE                               from file      0 offset           0 length                  71 to binary array file.
 Write INFO1-9                             from file      0 offset           0 length                   9 to binary array file.
 Write METHOD                              from file      0 offset           0 length                   2 to binary array file.
 Write BASIS NAME                          from file      0 offset           0 length                   1 to binary array file.
 Write LINK0 COMMANDS                      from file      0 offset           0 length                   8 to binary array file.
 Write POINT GROUP                         from file      0 offset           0 length                   4 to binary array file.
 Write POINT GROUP DIMENSIONS              from file      0 offset           0 length                   8 to binary array file.
 Write POINT GROUP IRREP NAMES             from file      0 offset           0 length                  20 to binary array file.
 Write POINT GROUP CLASS NAMES             from file      0 offset           0 length                  20 to binary array file.
 Write POINT GROUP GENERATORS              from file      0 offset           0 length                   3 to binary array file.
 Write POINT GROUP CLASS OF OPERATORS      from file      0 offset           0 length                  48 to binary array file.
 Write POINT GROUP ROTATIONS               from file      0 offset           0 length                 576 to binary array file.
 Write POINT GROUP CELL TRANS              from file      0 offset           0 length                 144 to binary array file.
 Write POINT GROUP CHAR TABLE              from file      0 offset           0 length                 100 to binary array file.
 Write POINT GROUP ATOM PERMUTATIONS       from file      0 offset           0 length                  48 to binary array file.
 Write ILSW                                from file      0 offset           0 length                 100 to binary array file.
 Write RLSW                                from file      0 offset           0 length                 100 to binary array file.
 Write GAUSSIAN SCALARS                    from file 100501 offset           0 to binary array file.
 Write OPTIMIZATION FLAGS                  from file      0 offset           0 length                   1 to binary array file.
 Write INTEGER ISO                         from file      0 offset           0 length                   1 to binary array file.
 Write REAL ZEFFECTIVE                     from file      0 offset           0 length                   1 to binary array file.
 Write REAL ZNUCLEAR                       from file      0 offset           0 length                   1 to binary array file.
 Write MULLIKEN CHARGES                    from file      0 offset           0 length                   1 to binary array file.
 Write NUCLEAR GRADIENT                    from file      0 offset           0 length                   3 to binary array file.
 Write NON-ADIABATIC COUPLING              from file      0 offset           0 length                   3 to binary array file.
 Write ETRAN SCALARS                       from file      0 offset           0 length                  20 to binary array file.
 Write ETRAN SPINS                         from file      0 offset           0 length                  15 to binary array file.
 Write ETRAN SYMS                          from file      0 offset           0 length                  15 to binary array file.
 Write ETRAN STATE VALUES                  from file      0 offset           0 length                 240 to binary array file.
 Write MO TRANSFORMATION WINDOW            from file 100569 offset           0 length                   2 to binary array file.
 Write HARM CONSTRAINT C AND FC            from file      0 offset           0 length                   6 to binary array file.
 Write FINITE EM FIELD                     from file 100521 offset           0 length                 105 to binary array file.
 Write OVERLAP                             from file 100514 offset           0 length                2145 to binary array file.
 Write CORE HAMILTONIAN ALPHA              from file 100515 offset           0 length                2145 to binary array file.
 Write CORE HAMILTONIAN BETA               from file 100515 offset        2145 length                2145 to binary array file.
 Write KINETIC ENERGY                      from file 100516 offset           0 length                2145 to binary array file.
 Write ORTHONORMAL BASIS                   from file 100685 offset           0 length                4225 to binary array file.
 Write DIPOLE INTEGRALS                    from file 100518 offset           0 length                6435 to binary array file.
 Write DIP VEL INTEGRALS                   from file 100572 offset           0 length                6435 to binary array file.
 Write R X DEL INTEGRALS                   from file 100572 offset        6435 length                6435 to binary array file.
 Write R X DEL - DEL X R INTEGRALS         from file 100572 offset       12870 length               12870 to binary array file.
 Array MAGNETIC FIELD P1 (GIAO)             on  file 100696 does not exist.
 Write ALPHA ORBITAL ENERGIES              from file      0 offset           0 length                  65 to binary array file.
 Write BETA ORBITAL ENERGIES               from file      0 offset           0 length                  65 to binary array file.
 Write ALPHA MO COEFFICIENTS               from file 100524 offset           0 length                4225 to binary array file.
 Write BETA MO COEFFICIENTS                from file 100526 offset           0 length                4225 to binary array file.
 Write SCF ORBITAL OCCUPATIONS             from file 100861 offset           0 length                 130 to binary array file.
 Write ALPHA FOCK MATRIX                   from file 100536 offset           0 length                2145 to binary array file.
 Write BETA FOCK MATRIX                    from file 100538 offset           0 length                2145 to binary array file.
 Write ENERGY-WEIGHTED DENSITY             from file 100571 offset           0 length                2145 to binary array file.
 Write SCF ENERGY-WEIGHTED DENSITY         from file 100571 offset        2145 length                2145 to binary array file.
 Write ALPHA SCF DENSITY MATRIX            from file      0 offset           0 length                2145 to binary array file.
 Write BETA SCF DENSITY MATRIX             from file      0 offset           0 length                2145 to binary array file.
 Write ALPHA CI RHO(1) DENSITY MATRIX      from file      0 offset           0 length                2145 to binary array file.
 Write BETA CI RHO(1) DENSITY MATRIX       from file      0 offset           0 length                2145 to binary array file.
 Write TRANS MO COEFFICIENTS               from file 100548 offset           0 length                6370 to binary array file.
 Write EXCITED STATE DIMS                  from file      0 offset           0 length                   8 to binary array file.
 Write EXCITED STATE SPINS                 from file      0 offset           0 length                  15 to binary array file.
 Write EXCITED STATE DENSITIES             from file      0 offset           0 length               64350 to binary array file.
 Write GROUND TO EXCITED STATE DENSITIES   from file      0 offset           0 length              126750 to binary array file.
 Write SSCIFILE INTEGERS                   from file      0 offset           0 length                  12 to binary array file.
 Write SSCIFILE REALS                      from file      0 offset           0 length               10815 to binary array file.
 WrULi1:  IRw=100514 LRw=    2145 NInt=       0 IOff=       0 NIntR=       0 NInt=       0 NReal=    2145
 Write FILE     514 REALS                  from file 100514 offset           0 length                2145 to binary array file.
 WrULi1:  IRw=100619 LRw=     197 NInt=       0 IOff=       0 NIntR=       0 NInt=       0 NReal=     197
 Write FILE     619 REALS                  from file 100619 offset           0 length                 197 to binary array file.
 WrULi1:  IRw=100751 LRw=       0 NInt=       0 IOff=       0 NIntR=       0 NInt=       0 NReal=       0
 WrULi1:  IRw=100870 LRw=    2145 NInt=       0 IOff=       0 NIntR=       0 NInt=       0 NReal=    2145
 Write FILE     870 REALS                  from file 100870 offset           0 length                2145 to binary array file.
 WrULi1:  IRw=100001 LRw=    5940 NInt=       0 IOff=       0 NIntR=       0 NInt=       0 NReal=    5940
 Write FILE       1 REALS                  from file 100001 offset           0 length                5940 to binary array file.
 WrULi1:  IRw=100002 LRw=   32400 NInt=       0 IOff=       0 NIntR=       0 NInt=       0 NReal=   32400
 Write FILE       2 REALS                  from file 100002 offset           0 length               32400 to binary array file.
 WrULi1:  IRw=100003 LRw=    5940 NInt=       0 IOff=       0 NIntR=       0 NInt=       0 NReal=    5940
 Write FILE       3 REALS                  from file 100003 offset           0 length                5940 to binary array file.
 WrULi1:  IRw=100004 LRw=      21 NInt=       0 IOff=       0 NIntR=       0 NInt=       0 NReal=      21
 Write FILE       4 REALS                  from file 100004 offset           0 length                  21 to binary array file.
 WrULi1:  IRw=100005 LRw=   32400 NInt=       0 IOff=       0 NIntR=       0 NInt=       0 NReal=   32400
 Write FILE       5 REALS                  from file 100005 offset           0 length               32400 to binary array file.
 WrULi1:  IRw=100006 LRw=     100 NInt=       0 IOff=       0 NIntR=       0 NInt=       0 NReal=     100
 Write FILE       6 REALS                  from file 100006 offset           0 length                 100 to binary array file.
 WrULi1:  IRw=100007 LRw=   10350 NInt=       0 IOff=       0 NIntR=       0 NInt=       0 NReal=   10350
 Write FILE       7 REALS                  from file 100007 offset           0 length               10350 to binary array file.
 WrULi1:  IRw=100008 LRw=   10350 NInt=       0 IOff=       0 NIntR=       0 NInt=       0 NReal=   10350
 Write FILE       8 REALS                  from file 100008 offset           0 length               10350 to binary array file.
 WrULi1:  IRw=100009 LRw=      21 NInt=       0 IOff=       0 NIntR=       0 NInt=       0 NReal=      21
 Write FILE       9 REALS                  from file 100009 offset           0 length                  21 to binary array file.
 WrULi1:  IRw=100010 LRw=   32400 NInt=       0 IOff=       0 NIntR=       0 NInt=       0 NReal=   32400
 Write FILE      10 REALS                  from file 100010 offset           0 length               32400 to binary array file.
 WrULi1:  IRw=100011 LRw=    1080 NInt=       0 IOff=       0 NIntR=       0 NInt=       0 NReal=    1080
 Write FILE      11 REALS                  from file 100011 offset           0 length                1080 to binary array file.
 WrULi1:  IRw=100012 LRw=    1800 NInt=       0 IOff=       0 NIntR=       0 NInt=       0 NReal=    1800
 Write FILE      12 REALS                  from file 100012 offset           0 length                1800 to binary array file.
 WrULi1:  IRw=100013 LRw=    1800 NInt=       0 IOff=       0 NIntR=       0 NInt=       0 NReal=    1800
 Write FILE      13 REALS                  from file 100013 offset           0 length                1800 to binary array file.
 WrULi1:  IRw=100014 LRw=    1080 NInt=       0 IOff=       0 NIntR=       0 NInt=       0 NReal=    1080
 Write FILE      14 REALS                  from file 100014 offset           0 length                1080 to binary array file.
 No 2e integrals to process.
 Job cpu time:       0 days  0 hours  0 minutes 28.6 seconds.
 Elapsed time:       0 days  0 hours  0 minutes  4.3 seconds.
 File lengths (MBytes):  RWF=     29 Int=      0 D2E=      0 Chk=      4 Scr=      1
 Normal termination of Gaussian DV at Sun Oct 19 13:27:47 2025.
